LAMMPS Description

      2592 atoms
      1512 bonds
      2592 angles
      1944 dihedrals
      

         6 atom types
         3 bond types
         4 angle types
         1 dihedral types
        

# Cell: 38.346000 38.346000 38.346000 90.0000 90.0000 90.0000
    0.000000    38.346000 xlo xhi
    0.000000    38.346000 ylo yhi
    0.000000    38.346000 zlo zhi

Masses

         1 12.01115	# c3
         2 1.00797	# h+
         3 1.00797	# hc
         4 126.90447	# I
         5 14.00670	# na2
         6 207.20000	# Pb



Atoms

1 1 6 0.00000 18.982710 18.731080 18.827171	# Pb	Pb
2 2 4 0.00000 18.524199 18.578959 3.601486	# I1	I
3 3 4 0.00000 0.636514 4.076528 18.629897	# I2	I
4 4 4 0.00000 2.795531 18.996548 0.561706	# I3	I
5 5 1 0.02100 3.474482 3.657835 3.075458	# C2	c3
6 5 5 -0.18000 2.337686 2.653450 3.183847	# N2	na2
7 5 3 0.05300 3.896418 3.837199 4.064105	# H1	hc
8 5 3 0.05300 3.094067 4.594703 2.667401	# H2	hc
9 5 3 0.05300 4.248178 3.261917 2.416621	# H3	hc
10 5 2 0.00000 1.412221 3.174689 3.313351	# H4	h+
11 5 2 0.00000 2.506446 2.012846 4.023782	# H5	h+
12 5 2 0.00000 2.294120 2.065917 2.290299	# H6	h+
13 6 6 0.00000 19.107117 0.453748 6.478699	# Pb	Pb
14 7 4 0.00000 18.438840 0.034767 10.024948	# I1	I
15 8 4 0.00000 19.113283 2.855174 6.312983	# I2	I
16 9 4 0.00000 3.062531 19.022654 6.161599	# I3	I
17 10 1 0.02100 3.467576 3.701367 8.825992	# C2	c3
18 10 5 -0.18000 2.668879 2.902567 9.849957	# N2	na2
19 10 3 0.05300 4.409229 4.025301 9.270408	# H1	hc
20 10 3 0.05300 2.892977 4.574139 8.518006	# H2	hc
21 10 3 0.05300 3.672682 3.076389 7.955675	# H3	hc
22 10 2 0.00000 1.823213 3.475163 10.168986	# H4	h+
23 10 2 0.00000 3.288606 2.682317 10.694140	# H5	h+
24 10 2 0.00000 2.333097 1.989110 9.406886	# H6	h+
25 11 6 0.00000 19.151582 18.747151 13.224157	# Pb	Pb
26 12 4 0.00000 0.815779 0.631407 15.356400	# I1	I
27 13 4 0.00000 0.310297 3.846484 13.455219	# I2	I
28 14 4 0.00000 3.551602 0.429430 13.238371	# I3	I
29 15 1 0.02100 2.859517 4.439525 15.314781	# C2	c3
30 15 5 -0.18000 2.477347 3.073351 15.858930	# N2	na2
31 15 3 0.05300 3.417391 4.988676 16.072084	# H1	hc
32 15 3 0.05300 1.957218 4.993543 15.055433	# H2	hc
33 15 3 0.05300 3.478292 4.316015 14.426422	# H3	hc
34 15 2 0.00000 1.724711 3.186628 16.610662	# H4	h+
35 15 2 0.00000 3.340045 2.605941 16.285712	# H5	h+
36 15 2 0.00000 2.098738 2.465323 15.063347	# H6	h+
37 16 6 0.00000 0.495843 6.715595 0.097531	# Pb	Pb
38 17 4 0.00000 0.727372 7.206078 2.271065	# I1	I
39 18 4 0.00000 0.217091 9.674858 0.019185	# I2	I
40 19 4 0.00000 3.541185 6.700182 0.169084	# I3	I
41 20 1 0.02100 3.337609 10.180121 3.497924	# C2	c3
42 20 5 -0.18000 2.486522 8.921871 3.496083	# N2	na2
43 20 3 0.05300 3.804094 10.302472 4.476566	# H1	hc
44 20 3 0.05300 2.708479 11.044404 3.284364	# H2	hc
45 20 3 0.05300 4.110978 10.096064 2.734338	# H3	hc
46 20 2 0.00000 1.532087 9.136787 3.927623	# H4	h+
47 20 2 0.00000 2.974053 8.160489 4.068888	# H5	h+
48 20 2 0.00000 2.354705 8.582108 2.489855	# H6	h+
49 21 6 0.00000 18.682923 5.427046 6.863120	# Pb	Pb
50 22 4 0.00000 19.145699 6.586345 9.806076	# I1	I
51 23 4 0.00000 19.064089 9.742459 6.324692	# I2	I
52 24 4 0.00000 3.246122 6.013674 7.157428	# I3	I
53 25 1 0.02100 3.386398 10.248746 9.285191	# C2	c3
54 25 5 -0.18000 2.188597 9.416863 9.710188	# N2	na2
55 25 3 0.05300 4.070259 10.357842 10.127230	# H1	hc
56 25 3 0.05300 3.048436 11.233329 8.961385	# H2	hc
57 25 3 0.05300 3.899826 9.751593 8.461913	# H3	hc
58 25 2 0.00000 1.391001 10.065082 10.004866	# H4	h+
59 25 2 0.00000 2.462813 8.791724 10.533631	# H5	h+
60 25 2 0.00000 1.868931 8.807746 8.890904	# H6	h+
61 26 6 0.00000 0.451565 6.448776 12.742169	# Pb	Pb
62 27 4 0.00000 19.053291 6.380180 15.797359	# I1	I
63 28 4 0.00000 0.072555 10.020365 12.866693	# I2	I
64 29 4 0.00000 3.446477 5.867161 13.260348	# I3	I
65 30 1 0.02100 3.609565 9.627802 15.419475	# C2	c3
66 30 5 -0.18000 2.622506 8.530008 15.788249	# N2	na2
67 30 3 0.05300 4.161271 9.933876 16.307939	# H1	hc
68 30 3 0.05300 3.068211 10.483449 15.015753	# H2	hc
69 30 3 0.05300 4.307207 9.252648 14.669982	# H3	hc
70 30 2 0.00000 1.725106 8.970138 16.170216	# H4	h+
71 30 2 0.00000 3.055156 7.897263 16.535417	# H5	h+
72 30 2 0.00000 2.393060 7.949526 14.918634	# H6	h+
73 31 6 0.00000 0.131851 12.481886 19.020049	# Pb	Pb
74 32 4 0.00000 0.027997 13.313066 2.865059	# I1	I
75 33 4 0.00000 18.973170 15.532793 19.041603	# I2	I
76 34 4 0.00000 3.331669 13.270035 0.425810	# I3	I
77 35 1 0.02100 3.475868 16.513431 3.641799	# C2	c3
78 35 5 -0.18000 2.313473 15.537506 3.464394	# N2	na2
79 35 3 0.05300 3.802667 16.506096 4.683552	# H1	hc
80 35 3 0.05300 3.151971 17.519470 3.370381	# H2	hc
81 35 3 0.05300 4.305279 16.213523 2.999394	# H3	hc
82 35 2 0.00000 1.394624 16.025607 3.717823	# H4	h+
83 35 2 0.00000 2.455510 14.691424 4.105423	# H5	h+
84 35 2 0.00000 2.273318 15.209566 2.445851	# H6	h+
85 36 6 0.00000 18.503221 13.013764 5.848731	# Pb	Pb
86 37 4 0.00000 18.920885 12.812662 10.072085	# I1	I
87 38 4 0.00000 0.636537 16.578690 5.605111	# I2	I
88 39 4 0.00000 3.322294 13.360432 6.469176	# I3	I
89 40 1 0.02100 3.351843 16.460572 9.765891	# C2	c3
90 40 5 -0.18000 2.507468 15.236042 9.461260	# N2	na2
91 40 3 0.05300 3.915323 16.293459 10.684348	# H1	hc
92 40 3 0.05300 2.702608 17.326767 9.890267	# H2	hc
93 40 3 0.05300 4.043907 16.639657 8.941747	# H3	hc
94 40 2 0.00000 1.473415 15.509846 9.452343	# H4	h+
95 40 2 0.00000 2.673477 14.493119 10.213018	# H5	h+
96 40 2 0.00000 2.781041 14.842621 8.503776	# H6	h+
97 41 6 0.00000 18.763445 12.582366 13.753379	# Pb	Pb
98 42 4 0.00000 0.286071 12.488862 16.311471	# I1	I
99 43 4 0.00000 0.821527 15.755242 12.258726	# I2	I
100 44 4 0.00000 2.629600 12.952909 12.671342	# I3	I
101 45 1 0.02100 3.843928 16.416939 16.215631	# C2	c3
102 45 5 -0.18000 2.639716 15.510288 16.452053	# N2	na2
103 45 3 0.05300 4.314636 16.652698 17.169573	# H1	hc
104 45 3 0.05300 3.516349 17.339423 15.735362	# H2	hc
105 45 3 0.05300 4.562547 15.908910 15.572848	# H3	hc
106 45 2 0.00000 1.941491 16.004685 17.096306	# H4	h+
107 45 2 0.00000 2.962855 14.598088 16.910539	# H5	h+
108 45 2 0.00000 2.167584 15.291231 15.516278	# H6	h+
109 46 6 0.00000 6.401701 0.049100 18.977223	# Pb	Pb
110 47 4 0.00000 6.942496 19.149648 3.406288	# I1	I
111 48 4 0.00000 6.738125 3.505351 0.386498	# I2	I
112 49 4 0.00000 10.038708 0.309739 0.087557	# I3	I
113 50 1 0.02100 10.325652 3.594883 3.246889	# C2	c3
114 50 5 -0.18000 9.206879 2.605652 2.935255	# N2	na2
115 50 3 0.05300 10.598711 3.516425 4.299299	# H1	hc
116 50 3 0.05300 9.984896 4.609386 3.034966	# H2	hc
117 50 3 0.05300 11.194821 3.367491 2.628616	# H3	hc
118 50 2 0.00000 8.330304 2.869451 3.491450	# H4	h+
119 50 2 0.00000 9.517523 1.617456 3.207048	# H5	h+
120 50 2 0.00000 8.986222 2.634334 1.887504	# H6	h+
121 51 6 0.00000 5.903666 0.303861 6.448692	# Pb	Pb
122 52 4 0.00000 6.534320 0.225458 9.793244	# I1	I
123 53 4 0.00000 5.784688 3.089651 6.587135	# I2	I
124 54 4 0.00000 10.253219 0.526319 6.725629	# I3	I
125 55 1 0.02100 9.500066 3.628131 9.670797	# C2	c3
126 55 5 -0.18000 8.526706 2.465885 9.553198	# N2	na2
127 55 3 0.05300 9.897668 3.666388 10.685097	# H1	hc
128 55 3 0.05300 8.981582 4.561535 9.448146	# H2	hc
129 55 3 0.05300 10.319379 3.489632 8.964151	# H3	hc
130 55 2 0.00000 7.527619 2.822579 9.685138	# H4	h+
131 55 2 0.00000 8.747747 1.739109 10.305931	# H5	h+
132 55 2 0.00000 8.620531 2.017509 8.586506	# H6	h+
133 56 6 0.00000 6.435370 19.111194 13.140805	# Pb	Pb
134 57 4 0.00000 5.513723 19.075134 15.675365	# I1	I
135 58 4 0.00000 6.639335 3.061443 12.794758	# I2	I
136 59 4 0.00000 9.966395 0.454287 13.346631	# I3	I
137 60 1 0.02100 9.725679 3.422719 15.903388	# C2	c3
138 60 5 -0.18000 8.239118 3.176444 15.785870	# N2	na2
139 60 3 0.05300 10.035506 3.280282 16.936932	# H1	hc
140 60 3 0.05300 9.948362 4.442129 15.594117	# H2	hc
141 60 3 0.05300 10.260602 2.722969 15.263392	# H3	hc
142 60 2 0.00000 7.714749 4.096878 15.927155	# H4	h+
143 60 2 0.00000 7.935049 2.474075 16.531718	# H5	h+
144 60 2 0.00000 8.019382 2.785304 14.815895	# H6	h+
145 61 6 0.00000 6.306318 5.972429 18.434007	# Pb	Pb
146 62 4 0.00000 6.580375 6.228452 3.868927	# I1	I
147 63 4 0.00000 7.172754 10.057099 0.655357	# I2	I
148 64 4 0.00000 9.812855 7.086875 19.030487	# I3	I
149 65 1 0.02100 9.851722 10.200492 2.588902	# C2	c3
150 65 5 -0.18000 8.869056 9.179121 3.150840	# N2	na2
151 65 3 0.05300 10.629385 10.402373 3.326652	# H1	hc
152 65 3 0.05300 9.322621 11.125021 2.357515	# H2	hc
153 65 3 0.05300 10.307268 9.806125 1.680333	# H3	hc
154 65 2 0.00000 7.976197 9.678588 3.466495	# H4	h+
155 65 2 0.00000 9.312182 8.679224 3.987214	# H5	h+
156 65 2 0.00000 8.627298 8.461565 2.394183	# H6	h+
157 66 6 0.00000 5.443590 6.707173 6.685885	# Pb	Pb
158 67 4 0.00000 6.167161 6.493809 8.899803	# I1	I
159 68 4 0.00000 7.006721 9.155128 6.202348	# I2	I
160 69 4 0.00000 9.494260 6.530657 6.950301	# I3	I
161 70 1 0.02100 9.970661 9.796627 9.396216	# C2	c3
162 70 5 -0.18000 8.670232 9.028924 9.180384	# N2	na2
163 70 3 0.05300 10.348761 9.599014 10.400459	# H1	hc
164 70 3 0.05300 9.785683 10.865645 9.281681	# H2	hc
165 70 3 0.05300 10.709004 9.475502 8.660947	# H3	hc
166 70 2 0.00000 7.849248 9.716611 9.151377	# H4	h+
167 70 2 0.00000 8.526405 8.336160 9.983614	# H5	h+
168 70 2 0.00000 8.720159 8.494717 8.253862	# H6	h+
169 71 6 0.00000 6.681002 6.990598 12.942031	# Pb	Pb
170 72 4 0.00000 6.964592 6.516690 15.852098	# I1	I
171 73 4 0.00000 6.447992 9.716066 13.271282	# I2	I
172 74 4 0.00000 10.024830 6.134618 12.911636	# I3	I
173 75 1 0.02100 9.832153 10.073081 15.731466	# C2	c3
174 75 5 -0.18000 8.637835 9.137800 15.880711	# N2	na2
175 75 3 0.05300 10.498545 9.952461 16.586499	# H1	hc
176 75 3 0.05300 9.482613 11.105722 15.686230	# H2	hc
177 75 3 0.05300 10.370955 9.831426 14.814162	# H3	hc
178 75 2 0.00000 7.742354 9.715261 15.983215	# H4	h+
179 75 2 0.00000 8.768632 8.525849 16.749631	# H5	h+
180 75 2 0.00000 8.562506 8.514517 15.014277	# H6	h+
181 76 6 0.00000 6.521612 12.530174 0.105550	# Pb	Pb
182 77 4 0.00000 6.613860 12.510165 2.658943	# I1	I
183 78 4 0.00000 6.257508 16.133681 0.033566	# I2	I
184 79 4 0.00000 9.894340 13.018837 0.071383	# I3	I
185 80 1 0.02100 10.336975 16.424924 2.912526	# C2	c3
186 80 5 -0.18000 9.027171 15.747427 3.313159	# N2	na2
187 80 3 0.05300 11.031056 16.401637 3.753058	# H1	hc
188 80 3 0.05300 10.141365 17.460401 2.632913	# H2	hc
189 80 3 0.05300 10.776243 15.897337 2.064865	# H3	hc
190 80 2 0.00000 8.234322 16.467427 3.305458	# H4	h+
191 80 2 0.00000 9.123862 15.335162 4.296430	# H5	h+
192 80 2 0.00000 8.802809 14.963891 2.619278	# H6	h+
193 81 6 0.00000 6.685143 13.655517 5.991804	# Pb	Pb
194 82 4 0.00000 6.114867 13.058232 9.978319	# I1	I
195 83 4 0.00000 6.999746 16.034952 7.479882	# I2	I
196 84 4 0.00000 9.010339 12.782950 6.443399	# I3	I
197 85 1 0.02100 9.887518 16.144504 9.300359	# C2	c3
198 85 5 -0.18000 9.129281 14.958661 9.862704	# N2	na2
199 85 3 0.05300 10.874786 16.193175 9.758274	# H1	hc
200 85 3 0.05300 9.340628 17.060936 9.517538	# H2	hc
201 85 3 0.05300 9.991956 16.030159 8.222101	# H3	hc
202 85 2 0.00000 8.145788 15.267333 10.147739	# H4	h+
203 85 2 0.00000 9.646736 14.579045 10.719096	# H5	h+
204 85 2 0.00000 9.061850 14.193881 9.118239	# H6	h+
205 86 6 0.00000 6.659000 11.887519 12.475519	# Pb	Pb
206 87 4 0.00000 5.827630 12.517002 16.037692	# I1	I
207 88 4 0.00000 6.266853 16.226017 12.133190	# I2	I
208 89 4 0.00000 10.137903 12.908696 12.175735	# I3	I
209 90 1 0.02100 9.813245 16.452492 15.527225	# C2	c3
210 90 5 -0.18000 8.796404 15.524813 16.182990	# N2	na2
211 90 3 0.05300 10.385478 16.968261 16.298936	# H1	hc
212 90 3 0.05300 9.292575 17.185746 14.910321	# H2	hc
213 90 3 0.05300 10.490422 15.868231 14.902987	# H3	hc
214 90 2 0.00000 8.087924 16.105610 16.736219	# H4	h+
215 90 2 0.00000 9.301189 14.852932 16.846138	# H5	h+
216 90 2 0.00000 8.285438 14.963633 15.428533	# H6	h+
217 91 6 0.00000 13.028518 0.382738 19.124479	# Pb	Pb
218 92 4 0.00000 12.381998 18.936767 2.967303	# I1	I
219 93 4 0.00000 13.566968 3.070056 0.577737	# I2	I
220 94 4 0.00000 15.969725 0.020595 19.050874	# I3	I
221 95 1 0.02100 16.295941 3.570148 3.099454	# C2	c3
222 95 5 -0.18000 15.576248 2.234038 3.078282	# N2	na2
223 95 3 0.05300 16.901158 3.642753 4.004043	# H1	hc
224 95 3 0.05300 15.562651 4.377452 3.086355	# H2	hc
225 95 3 0.05300 16.939978 3.649488 2.223286	# H3	hc
226 95 2 0.00000 14.628843 2.332474 3.564307	# H4	h+
227 95 2 0.00000 16.165669 1.503571 3.590411	# H5	h+
228 95 2 0.00000 15.426889 1.925392 2.064654	# H6	h+
229 96 6 0.00000 13.214802 18.630629 5.861754	# Pb	Pb
230 97 4 0.00000 12.385237 0.783867 9.512711	# I1	I
231 98 4 0.00000 13.431292 2.971587 6.616724	# I2	I
232 99 4 0.00000 15.713439 0.316757 6.946810	# I3	I
233 100 1 0.02100 16.426492 3.491855 9.260160	# C2	c3
234 100 5 -0.18000 15.366878 2.450924 9.567921	# N2	na2
235 100 3 0.05300 17.165874 3.504828 10.060587	# H1	hc
236 100 3 0.05300 15.959015 4.472739 9.181174	# H2	hc
237 100 3 0.05300 16.914808 3.245139 8.318069	# H3	hc
238 100 2 0.00000 14.470639 2.939322 9.888265	# H4	h+
239 100 2 0.00000 15.717989 1.803659 10.344473	# H5	h+
240 100 2 0.00000 15.165514 1.876483 8.688010	# H6	h+
241 101 6 0.00000 12.374593 18.863990 12.976949	# Pb	Pb
242 102 4 0.00000 12.464007 0.827163 15.893900	# I1	I
243 103 4 0.00000 13.094633 3.178177 12.008675	# I2	I
244 104 4 0.00000 16.463264 18.693265 12.725091	# I3	I
245 105 1 0.02100 15.893684 3.879938 15.486529	# C2	c3
246 105 5 -0.18000 14.948796 2.875597 16.113798	# N2	na2
247 105 3 0.05300 16.726548 4.065774 16.163344	# H1	hc
248 105 3 0.05300 15.360671 4.811898 15.301233	# H2	hc
249 105 3 0.05300 16.271814 3.483228 14.544483	# H3	hc
250 105 2 0.00000 14.183189 3.394807 16.649735	# H4	h+
251 105 2 0.00000 15.492620 2.247039 16.787285	# H5	h+
252 105 2 0.00000 14.504774 2.277213 15.346430	# H6	h+
253 106 6 0.00000 13.662814 5.357593 19.129701	# Pb	Pb
254 107 4 0.00000 12.808224 7.263263 3.109806	# I1	I
255 108 4 0.00000 13.734161 9.726599 18.818558	# I2	I
256 109 4 0.00000 16.069434 7.060770 0.280437	# I3	I
257 110 1 0.02100 15.978130 9.617878 3.040760	# C2	c3
258 110 5 -0.18000 14.987735 8.487230 3.261352	# N2	na2
259 110 3 0.05300 16.749194 9.580536 3.810869	# H1	hc
260 110 3 0.05300 15.457088 10.573386 3.094310	# H2	hc
261 110 3 0.05300 16.439172 9.509937 2.058966	# H3	hc
262 110 2 0.00000 14.002881 8.891221 3.370539	# H4	h+
263 110 2 0.00000 15.252921 7.949611 4.147220	# H5	h+
264 110 2 0.00000 15.010622 7.824341 2.421165	# H6	h+
265 111 6 0.00000 13.309259 6.295274 6.218477	# Pb	Pb
266 112 4 0.00000 11.987712 6.651646 9.393224	# I1	I
267 113 4 0.00000 12.965918 9.741286 7.082687	# I2	I
268 114 4 0.00000 16.042457 6.729526 6.726974	# I3	I
269 115 1 0.02100 16.370575 9.826932 9.360131	# C2	c3
270 115 5 -0.18000 16.044882 8.347636 9.227020	# N2	na2
271 115 3 0.05300 16.910049 9.998314 10.292189	# H1	hc
272 115 3 0.05300 15.445537 10.403397 9.364364	# H2	hc
273 115 3 0.05300 16.989886 10.139815 8.519104	# H3	hc
274 115 2 0.00000 15.015158 8.186772 9.466785	# H4	h+
275 115 2 0.00000 16.660110 7.784157 9.898494	# H5	h+
276 115 2 0.00000 16.230831 8.030685 8.222089	# H6	h+
277 116 6 0.00000 12.311831 6.805356 12.310256	# Pb	Pb
278 117 4 0.00000 13.674257 6.515415 16.047451	# I1	I
279 118 4 0.00000 13.066850 9.345912 12.753971	# I2	I
280 119 4 0.00000 16.545928 6.729444 13.414635	# I3	I
281 120 1 0.02100 15.828798 10.133108 15.676445	# C2	c3
282 120 5 -0.18000 15.047481 8.833909 15.566186	# N2	na2
283 120 3 0.05300 16.110756 10.299857 16.716863	# H1	hc
284 120 3 0.05300 15.208779 10.961344 15.330231	# H2	hc
285 120 3 0.05300 16.727671 10.069738 15.061805	# H3	hc
286 120 2 0.00000 13.999007 9.044759 15.589812	# H4	h+
287 120 2 0.00000 15.301245 8.195123 16.386045	# H5	h+
288 120 2 0.00000 15.292824 8.346985 14.645496	# H6	h+
289 121 6 0.00000 11.893532 13.355878 0.168012	# Pb	Pb
290 122 4 0.00000 13.356648 13.330720 2.822848	# I1	I
291 123 4 0.00000 13.035240 15.926830 18.840759	# I2	I
292 124 4 0.00000 16.195379 13.259462 0.459880	# I3	I
293 125 1 0.02100 16.189406 16.267787 2.959328	# C2	c3
294 125 5 -0.18000 15.200122 15.123531 3.134732	# N2	na2
295 125 3 0.05300 16.411866 16.709063 3.931356	# H1	hc
296 125 3 0.05300 15.756802 17.026992 2.306049	# H2	hc
297 125 3 0.05300 17.109112 15.887091 2.514520	# H3	hc
298 125 2 0.00000 14.206937 15.516619 3.204258	# H4	h+
299 125 2 0.00000 15.433354 14.583944 4.029185	# H5	h+
300 125 2 0.00000 15.264735 14.464314 2.293856	# H6	h+
301 126 6 0.00000 13.031556 12.337131 6.541041	# Pb	Pb
302 127 4 0.00000 11.966545 13.607093 8.899822	# I1	I
303 128 4 0.00000 13.420975 16.272206 5.843423	# I2	I
304 129 4 0.00000 16.183968 12.624332 6.944251	# I3	I
305 130 1 0.02100 15.682086 16.298617 9.412828	# C2	c3
306 130 5 -0.18000 14.735354 15.295587 10.059820	# N2	na2
307 130 3 0.05300 16.516483 16.497460 10.086286	# H1	hc
308 130 3 0.05300 15.146961 17.228014 9.213118	# H2	hc
309 130 3 0.05300 16.061621 15.889143 8.475413	# H3	hc
310 130 2 0.00000 13.830813 15.791438 10.347894	# H4	h+
311 130 2 0.00000 15.200727 14.873402 10.924767	# H5	h+
312 130 2 0.00000 14.508106 14.516773 9.361760	# H6	h+
313 131 6 0.00000 13.265242 13.301203 12.771437	# Pb	Pb
314 132 4 0.00000 12.659284 12.733808 15.714747	# I1	I
315 133 4 0.00000 12.592091 15.888609 12.798189	# I2	I
316 134 4 0.00000 15.421263 13.587456 12.424000	# I3	I
317 135 1 0.02100 16.443861 16.923283 15.674159	# C2	c3
318 135 5 -0.18000 15.624612 15.665434 15.941074	# N2	na2
319 135 3 0.05300 16.947238 17.230924 16.592439	# H1	hc
320 135 3 0.05300 15.783323 17.723502 15.336578	# H2	hc
321 135 3 0.05300 17.187754 16.717458 14.903793	# H3	hc
322 135 2 0.00000 14.603407 15.934873 16.114469	# H4	h+
323 135 2 0.00000 16.012135 15.163115 16.804188	# H5	h+
324 135 2 0.00000 15.682266 15.013782 15.093719	# H6	h+
325 136 6 0.00000 18.982710 18.731080 38.000171	# Pb	Pb
326 137 4 0.00000 18.524199 18.578959 22.774486	# I1	I
327 138 4 0.00000 0.636514 4.076528 37.802897	# I2	I
328 139 4 0.00000 2.795531 18.996548 19.734706	# I3	I
329 140 1 0.02100 3.474482 3.657835 22.248458	# C2	c3
330 140 5 -0.18000 2.337686 2.653450 22.356847	# N2	na2
331 140 3 0.05300 3.896418 3.837199 23.237105	# H1	hc
332 140 3 0.05300 3.094067 4.594703 21.840401	# H2	hc
333 140 3 0.05300 4.248178 3.261917 21.589621	# H3	hc
334 140 2 0.00000 1.412221 3.174689 22.486351	# H4	h+
335 140 2 0.00000 2.506446 2.012846 23.196782	# H5	h+
336 140 2 0.00000 2.294120 2.065917 21.463299	# H6	h+
337 141 6 0.00000 19.107117 0.453748 25.651699	# Pb	Pb
338 142 4 0.00000 18.438840 0.034767 29.197948	# I1	I
339 143 4 0.00000 19.113283 2.855174 25.485983	# I2	I
340 144 4 0.00000 3.062531 19.022654 25.334599	# I3	I
341 145 1 0.02100 3.467576 3.701367 27.998992	# C2	c3
342 145 5 -0.18000 2.668879 2.902567 29.022957	# N2	na2
343 145 3 0.05300 4.409229 4.025301 28.443408	# H1	hc
344 145 3 0.05300 2.892977 4.574139 27.691006	# H2	hc
345 145 3 0.05300 3.672682 3.076389 27.128675	# H3	hc
346 145 2 0.00000 1.823213 3.475163 29.341986	# H4	h+
347 145 2 0.00000 3.288606 2.682317 29.867140	# H5	h+
348 145 2 0.00000 2.333097 1.989110 28.579886	# H6	h+
349 146 6 0.00000 19.151582 18.747151 32.397157	# Pb	Pb
350 147 4 0.00000 0.815779 0.631407 34.529400	# I1	I
351 148 4 0.00000 0.310297 3.846484 32.628219	# I2	I
352 149 4 0.00000 3.551602 0.429430 32.411371	# I3	I
353 150 1 0.02100 2.859517 4.439525 34.487781	# C2	c3
354 150 5 -0.18000 2.477347 3.073351 35.031930	# N2	na2
355 150 3 0.05300 3.417391 4.988676 35.245084	# H1	hc
356 150 3 0.05300 1.957218 4.993543 34.228433	# H2	hc
357 150 3 0.05300 3.478292 4.316015 33.599422	# H3	hc
358 150 2 0.00000 1.724711 3.186628 35.783662	# H4	h+
359 150 2 0.00000 3.340045 2.605941 35.458712	# H5	h+
360 150 2 0.00000 2.098738 2.465323 34.236347	# H6	h+
361 151 6 0.00000 0.495843 6.715595 19.270531	# Pb	Pb
362 152 4 0.00000 0.727372 7.206078 21.444065	# I1	I
363 153 4 0.00000 0.217091 9.674858 19.192185	# I2	I
364 154 4 0.00000 3.541185 6.700182 19.342084	# I3	I
365 155 1 0.02100 3.337609 10.180121 22.670924	# C2	c3
366 155 5 -0.18000 2.486522 8.921871 22.669083	# N2	na2
367 155 3 0.05300 3.804094 10.302472 23.649566	# H1	hc
368 155 3 0.05300 2.708479 11.044404 22.457364	# H2	hc
369 155 3 0.05300 4.110978 10.096064 21.907338	# H3	hc
370 155 2 0.00000 1.532087 9.136787 23.100623	# H4	h+
371 155 2 0.00000 2.974053 8.160489 23.241888	# H5	h+
372 155 2 0.00000 2.354705 8.582108 21.662855	# H6	h+
373 156 6 0.00000 18.682923 5.427046 26.036120	# Pb	Pb
374 157 4 0.00000 19.145699 6.586345 28.979076	# I1	I
375 158 4 0.00000 19.064089 9.742459 25.497692	# I2	I
376 159 4 0.00000 3.246122 6.013674 26.330428	# I3	I
377 160 1 0.02100 3.386398 10.248746 28.458191	# C2	c3
378 160 5 -0.18000 2.188597 9.416863 28.883188	# N2	na2
379 160 3 0.05300 4.070259 10.357842 29.300230	# H1	hc
380 160 3 0.05300 3.048436 11.233329 28.134385	# H2	hc
381 160 3 0.05300 3.899826 9.751593 27.634913	# H3	hc
382 160 2 0.00000 1.391001 10.065082 29.177866	# H4	h+
383 160 2 0.00000 2.462813 8.791724 29.706631	# H5	h+
384 160 2 0.00000 1.868931 8.807746 28.063904	# H6	h+
385 161 6 0.00000 0.451565 6.448776 31.915169	# Pb	Pb
386 162 4 0.00000 19.053291 6.380180 34.970359	# I1	I
387 163 4 0.00000 0.072555 10.020365 32.039693	# I2	I
388 164 4 0.00000 3.446477 5.867161 32.433348	# I3	I
389 165 1 0.02100 3.609565 9.627802 34.592475	# C2	c3
390 165 5 -0.18000 2.622506 8.530008 34.961249	# N2	na2
391 165 3 0.05300 4.161271 9.933876 35.480939	# H1	hc
392 165 3 0.05300 3.068211 10.483449 34.188753	# H2	hc
393 165 3 0.05300 4.307207 9.252648 33.842982	# H3	hc
394 165 2 0.00000 1.725106 8.970138 35.343216	# H4	h+
395 165 2 0.00000 3.055156 7.897263 35.708417	# H5	h+
396 165 2 0.00000 2.393060 7.949526 34.091634	# H6	h+
397 166 6 0.00000 0.131851 12.481886 38.193049	# Pb	Pb
398 167 4 0.00000 0.027997 13.313066 22.038059	# I1	I
399 168 4 0.00000 18.973170 15.532793 38.214603	# I2	I
400 169 4 0.00000 3.331669 13.270035 19.598810	# I3	I
401 170 1 0.02100 3.475868 16.513431 22.814799	# C2	c3
402 170 5 -0.18000 2.313473 15.537506 22.637394	# N2	na2
403 170 3 0.05300 3.802667 16.506096 23.856552	# H1	hc
404 170 3 0.05300 3.151971 17.519470 22.543381	# H2	hc
405 170 3 0.05300 4.305279 16.213523 22.172394	# H3	hc
406 170 2 0.00000 1.394624 16.025607 22.890823	# H4	h+
407 170 2 0.00000 2.455510 14.691424 23.278423	# H5	h+
408 170 2 0.00000 2.273318 15.209566 21.618851	# H6	h+
409 171 6 0.00000 18.503221 13.013764 25.021731	# Pb	Pb
410 172 4 0.00000 18.920885 12.812662 29.245085	# I1	I
411 173 4 0.00000 0.636537 16.578690 24.778111	# I2	I
412 174 4 0.00000 3.322294 13.360432 25.642176	# I3	I
413 175 1 0.02100 3.351843 16.460572 28.938891	# C2	c3
414 175 5 -0.18000 2.507468 15.236042 28.634260	# N2	na2
415 175 3 0.05300 3.915323 16.293459 29.857348	# H1	hc
416 175 3 0.05300 2.702608 17.326767 29.063267	# H2	hc
417 175 3 0.05300 4.043907 16.639657 28.114747	# H3	hc
418 175 2 0.00000 1.473415 15.509846 28.625343	# H4	h+
419 175 2 0.00000 2.673477 14.493119 29.386018	# H5	h+
420 175 2 0.00000 2.781041 14.842621 27.676776	# H6	h+
421 176 6 0.00000 18.763445 12.582366 32.926379	# Pb	Pb
422 177 4 0.00000 0.286071 12.488862 35.484471	# I1	I
423 178 4 0.00000 0.821527 15.755242 31.431726	# I2	I
424 179 4 0.00000 2.629600 12.952909 31.844342	# I3	I
425 180 1 0.02100 3.843928 16.416939 35.388631	# C2	c3
426 180 5 -0.18000 2.639716 15.510288 35.625053	# N2	na2
427 180 3 0.05300 4.314636 16.652698 36.342573	# H1	hc
428 180 3 0.05300 3.516349 17.339423 34.908362	# H2	hc
429 180 3 0.05300 4.562547 15.908910 34.745848	# H3	hc
430 180 2 0.00000 1.941491 16.004685 36.269306	# H4	h+
431 180 2 0.00000 2.962855 14.598088 36.083539	# H5	h+
432 180 2 0.00000 2.167584 15.291231 34.689278	# H6	h+
433 181 6 0.00000 6.401701 0.049100 38.150223	# Pb	Pb
434 182 4 0.00000 6.942496 19.149648 22.579288	# I1	I
435 183 4 0.00000 6.738125 3.505351 19.559498	# I2	I
436 184 4 0.00000 10.038708 0.309739 19.260557	# I3	I
437 185 1 0.02100 10.325652 3.594883 22.419889	# C2	c3
438 185 5 -0.18000 9.206879 2.605652 22.108255	# N2	na2
439 185 3 0.05300 10.598711 3.516425 23.472299	# H1	hc
440 185 3 0.05300 9.984896 4.609386 22.207966	# H2	hc
441 185 3 0.05300 11.194821 3.367491 21.801616	# H3	hc
442 185 2 0.00000 8.330304 2.869451 22.664450	# H4	h+
443 185 2 0.00000 9.517523 1.617456 22.380048	# H5	h+
444 185 2 0.00000 8.986222 2.634334 21.060504	# H6	h+
445 186 6 0.00000 5.903666 0.303861 25.621692	# Pb	Pb
446 187 4 0.00000 6.534320 0.225458 28.966244	# I1	I
447 188 4 0.00000 5.784688 3.089651 25.760135	# I2	I
448 189 4 0.00000 10.253219 0.526319 25.898629	# I3	I
449 190 1 0.02100 9.500066 3.628131 28.843797	# C2	c3
450 190 5 -0.18000 8.526706 2.465885 28.726198	# N2	na2
451 190 3 0.05300 9.897668 3.666388 29.858097	# H1	hc
452 190 3 0.05300 8.981582 4.561535 28.621146	# H2	hc
453 190 3 0.05300 10.319379 3.489632 28.137151	# H3	hc
454 190 2 0.00000 7.527619 2.822579 28.858138	# H4	h+
455 190 2 0.00000 8.747747 1.739109 29.478931	# H5	h+
456 190 2 0.00000 8.620531 2.017509 27.759506	# H6	h+
457 191 6 0.00000 6.435370 19.111194 32.313805	# Pb	Pb
458 192 4 0.00000 5.513723 19.075134 34.848365	# I1	I
459 193 4 0.00000 6.639335 3.061443 31.967758	# I2	I
460 194 4 0.00000 9.966395 0.454287 32.519631	# I3	I
461 195 1 0.02100 9.725679 3.422719 35.076388	# C2	c3
462 195 5 -0.18000 8.239118 3.176444 34.958870	# N2	na2
463 195 3 0.05300 10.035506 3.280282 36.109932	# H1	hc
464 195 3 0.05300 9.948362 4.442129 34.767117	# H2	hc
465 195 3 0.05300 10.260602 2.722969 34.436392	# H3	hc
466 195 2 0.00000 7.714749 4.096878 35.100155	# H4	h+
467 195 2 0.00000 7.935049 2.474075 35.704718	# H5	h+
468 195 2 0.00000 8.019382 2.785304 33.988895	# H6	h+
469 196 6 0.00000 6.306318 5.972429 37.607007	# Pb	Pb
470 197 4 0.00000 6.580375 6.228452 23.041927	# I1	I
471 198 4 0.00000 7.172754 10.057099 19.828357	# I2	I
472 199 4 0.00000 9.812855 7.086875 38.203487	# I3	I
473 200 1 0.02100 9.851722 10.200492 21.761902	# C2	c3
474 200 5 -0.18000 8.869056 9.179121 22.323840	# N2	na2
475 200 3 0.05300 10.629385 10.402373 22.499652	# H1	hc
476 200 3 0.05300 9.322621 11.125021 21.530515	# H2	hc
477 200 3 0.05300 10.307268 9.806125 20.853333	# H3	hc
478 200 2 0.00000 7.976197 9.678588 22.639495	# H4	h+
479 200 2 0.00000 9.312182 8.679224 23.160214	# H5	h+
480 200 2 0.00000 8.627298 8.461565 21.567183	# H6	h+
481 201 6 0.00000 5.443590 6.707173 25.858885	# Pb	Pb
482 202 4 0.00000 6.167161 6.493809 28.072803	# I1	I
483 203 4 0.00000 7.006721 9.155128 25.375348	# I2	I
484 204 4 0.00000 9.494260 6.530657 26.123301	# I3	I
485 205 1 0.02100 9.970661 9.796627 28.569216	# C2	c3
486 205 5 -0.18000 8.670232 9.028924 28.353384	# N2	na2
487 205 3 0.05300 10.348761 9.599014 29.573459	# H1	hc
488 205 3 0.05300 9.785683 10.865645 28.454681	# H2	hc
489 205 3 0.05300 10.709004 9.475502 27.833947	# H3	hc
490 205 2 0.00000 7.849248 9.716611 28.324377	# H4	h+
491 205 2 0.00000 8.526405 8.336160 29.156614	# H5	h+
492 205 2 0.00000 8.720159 8.494717 27.426862	# H6	h+
493 206 6 0.00000 6.681002 6.990598 32.115031	# Pb	Pb
494 207 4 0.00000 6.964592 6.516690 35.025098	# I1	I
495 208 4 0.00000 6.447992 9.716066 32.444282	# I2	I
496 209 4 0.00000 10.024830 6.134618 32.084636	# I3	I
497 210 1 0.02100 9.832153 10.073081 34.904466	# C2	c3
498 210 5 -0.18000 8.637835 9.137800 35.053711	# N2	na2
499 210 3 0.05300 10.498545 9.952461 35.759499	# H1	hc
500 210 3 0.05300 9.482613 11.105722 34.859230	# H2	hc
501 210 3 0.05300 10.370955 9.831426 33.987162	# H3	hc
502 210 2 0.00000 7.742354 9.715261 35.156215	# H4	h+
503 210 2 0.00000 8.768632 8.525849 35.922631	# H5	h+
504 210 2 0.00000 8.562506 8.514517 34.187277	# H6	h+
505 211 6 0.00000 6.521612 12.530174 19.278550	# Pb	Pb
506 212 4 0.00000 6.613860 12.510165 21.831943	# I1	I
507 213 4 0.00000 6.257508 16.133681 19.206566	# I2	I
508 214 4 0.00000 9.894340 13.018837 19.244383	# I3	I
509 215 1 0.02100 10.336975 16.424924 22.085526	# C2	c3
510 215 5 -0.18000 9.027171 15.747427 22.486159	# N2	na2
511 215 3 0.05300 11.031056 16.401637 22.926058	# H1	hc
512 215 3 0.05300 10.141365 17.460401 21.805913	# H2	hc
513 215 3 0.05300 10.776243 15.897337 21.237865	# H3	hc
514 215 2 0.00000 8.234322 16.467427 22.478458	# H4	h+
515 215 2 0.00000 9.123862 15.335162 23.469430	# H5	h+
516 215 2 0.00000 8.802809 14.963891 21.792278	# H6	h+
517 216 6 0.00000 6.685143 13.655517 25.164804	# Pb	Pb
518 217 4 0.00000 6.114867 13.058232 29.151319	# I1	I
519 218 4 0.00000 6.999746 16.034952 26.652882	# I2	I
520 219 4 0.00000 9.010339 12.782950 25.616399	# I3	I
521 220 1 0.02100 9.887518 16.144504 28.473359	# C2	c3
522 220 5 -0.18000 9.129281 14.958661 29.035704	# N2	na2
523 220 3 0.05300 10.874786 16.193175 28.931274	# H1	hc
524 220 3 0.05300 9.340628 17.060936 28.690538	# H2	hc
525 220 3 0.05300 9.991956 16.030159 27.395101	# H3	hc
526 220 2 0.00000 8.145788 15.267333 29.320739	# H4	h+
527 220 2 0.00000 9.646736 14.579045 29.892096	# H5	h+
528 220 2 0.00000 9.061850 14.193881 28.291239	# H6	h+
529 221 6 0.00000 6.659000 11.887519 31.648519	# Pb	Pb
530 222 4 0.00000 5.827630 12.517002 35.210692	# I1	I
531 223 4 0.00000 6.266853 16.226017 31.306190	# I2	I
532 224 4 0.00000 10.137903 12.908696 31.348735	# I3	I
533 225 1 0.02100 9.813245 16.452492 34.700225	# C2	c3
534 225 5 -0.18000 8.796404 15.524813 35.355990	# N2	na2
535 225 3 0.05300 10.385478 16.968261 35.471936	# H1	hc
536 225 3 0.05300 9.292575 17.185746 34.083321	# H2	hc
537 225 3 0.05300 10.490422 15.868231 34.075987	# H3	hc
538 225 2 0.00000 8.087924 16.105610 35.909219	# H4	h+
539 225 2 0.00000 9.301189 14.852932 36.019138	# H5	h+
540 225 2 0.00000 8.285438 14.963633 34.601533	# H6	h+
541 226 6 0.00000 13.028518 0.382738 38.297479	# Pb	Pb
542 227 4 0.00000 12.381998 18.936767 22.140303	# I1	I
543 228 4 0.00000 13.566968 3.070056 19.750737	# I2	I
544 229 4 0.00000 15.969725 0.020595 38.223874	# I3	I
545 230 1 0.02100 16.295941 3.570148 22.272454	# C2	c3
546 230 5 -0.18000 15.576248 2.234038 22.251282	# N2	na2
547 230 3 0.05300 16.901158 3.642753 23.177043	# H1	hc
548 230 3 0.05300 15.562651 4.377452 22.259355	# H2	hc