/home/sez26/TIGP-IIP/HEA_compression/LMP_Files/Var2/111/HEA_II.lmp (written by ASE) 

4032 	 atoms 
5  atom types
0.0      64.881237609999999  xlo xhi
0.0      30.902263390000002  ylo yhi
0.0             30.58530872  zlo zhi


Atoms 

     1   2                       0              2.20730453      3.8231635900000001
     2   1               1.8022566                       0      5.0975514500000001
     3   2                       0                       0                       0
     4   2               1.8022566              2.20730453              1.27438786
     5   1      2.7033849000000001              2.20730453      3.8231635900000001
     6   1      4.5056415000000003                       0      5.0975514500000001
     7   1      2.7033849000000001                       0                       0
     8   2      4.5056415000000003              2.20730453              1.27438786
     9   1      5.4067698000000002              2.20730453      3.8231635900000001
    10   2      7.2090263999999999                       0      5.0975514500000001
    11   2      5.4067698000000002                       0                       0
    12   2      7.2090263999999999              2.20730453              1.27438786
    13   1      8.1101547000000007              2.20730453      3.8231635900000001
    14   2      9.9124113000000005                       0      5.0975514500000001
    15   2      8.1101547000000007                       0                       0
    16   2      9.9124113000000005              2.20730453              1.27438786
    17   1              10.8135396              2.20730453      3.8231635900000001
    18   2              12.6157962                       0      5.0975514500000001
    19   1              10.8135396                       0                       0
    20   2              12.6157962              2.20730453              1.27438786
    21   1              13.5169245              2.20730453      3.8231635900000001
    22   1              15.3191811                       0      5.0975514500000001
    23   1              13.5169245                       0                       0
    24   2              15.3191811              2.20730453              1.27438786
    25   1      16.220309400000001              2.20730453      3.8231635900000001
    26   1      18.022566000000001                       0      5.0975514500000001
    27   1      16.220309400000001                       0                       0
    28   2      18.022566000000001              2.20730453              1.27438786
    29   1      18.923694300000001              2.20730453      3.8231635900000001
    30   1      20.725950900000001                       0      5.0975514500000001
    31   2      18.923694300000001                       0                       0
    32   2      20.725950900000001              2.20730453              1.27438786
    33   1      21.627079200000001              2.20730453      3.8231635900000001
    34   1              23.4293358                       0      5.0975514500000001
    35   1      21.627079200000001                       0                       0
    36   2              23.4293358              2.20730453              1.27438786
    37   1              24.3304641              2.20730453      3.8231635900000001
    38   2              26.1327207                       0      5.0975514500000001
    39   1              24.3304641                       0                       0
    40   2              26.1327207              2.20730453              1.27438786
    41   2               27.033849              2.20730453      3.8231635900000001
    42   1              28.8361056                       0      5.0975514500000001
    43   1               27.033849                       0                       0
    44   2              28.8361056              2.20730453              1.27438786
    45   1              29.7372339              2.20730453      3.8231635900000001
    46   2             31.53949051                       0      5.0975514500000001
    47   1              29.7372339                       0                       0
    48   1             31.53949051              2.20730453              1.27438786
    49   1      32.440618809999997              2.20730453      3.8231635900000001
    50   2      34.242875410000003                       0      5.0975514500000001
    51   1      32.440618809999997                       0                       0
    52   2      34.242875410000003              2.20730453              1.27438786
    53   2             35.14400371              2.20730453      3.8231635900000001
    54   2             36.94626031                       0      5.0975514500000001
    55   2             35.14400371                       0                       0
    56   2             36.94626031              2.20730453              1.27438786
    57   2      37.847388610000003              2.20730453      3.8231635900000001
    58   2      39.649645210000003                       0      5.0975514500000001
    59   1      37.847388610000003                       0                       0
    60   2      39.649645210000003              2.20730453              1.27438786
    61   2      40.550773509999999              2.20730453      3.8231635900000001
    62   1      42.353030109999999                       0      5.0975514500000001
    63   2      40.550773509999999                       0                       0
    64   1      42.353030109999999              2.20730453              1.27438786
    65   1      43.254158410000002              2.20730453      3.8231635900000001
    66   2      45.056415010000002                       0      5.0975514500000001
    67   1      43.254158410000002                       0                       0
    68   1      45.056415010000002              2.20730453              1.27438786
    69   1      45.957543309999998              2.20730453      3.8231635900000001
    70   1      47.759799909999998                       0      5.0975514500000001
    71   2      45.957543309999998                       0                       0
    72   2      47.759799909999998              2.20730453              1.27438786
    73   2      48.660928210000002              2.20730453      3.8231635900000001
    74   2      50.463184810000001                       0      5.0975514500000001
    75   2      48.660928210000002                       0                       0
    76   1      50.463184810000001              2.20730453              1.27438786
    77   1      51.364313109999998              2.20730453      3.8231635900000001
    78   1      53.166569709999997                       0      5.0975514500000001
    79   2      51.364313109999998                       0                       0
    80   1      53.166569709999997              2.20730453              1.27438786
    81   1      54.067698010000001              2.20730453      3.8231635900000001
    82   1      55.869954610000001                       0      5.0975514500000001
    83   1      54.067698010000001                       0                       0
    84   1      55.869954610000001              2.20730453              1.27438786
    85   2      56.771082909999997              2.20730453      3.8231635900000001
    86   1      58.573339509999997                       0      5.0975514500000001
    87   1      56.771082909999997                       0                       0
    88   1      58.573339509999997              2.20730453              1.27438786
    89   2             59.47446781              2.20730453      3.8231635900000001
    90   1             61.27672441                       0      5.0975514500000001
    91   1             59.47446781                       0                       0
    92   2             61.27672441              2.20730453              1.27438786
    93   1      62.177852710000003              2.20730453      3.8231635900000001
    94   1      63.980109310000003                       0      5.0975514500000001
    95   2      62.177852710000003                       0                       0
    96   1      63.980109310000003              2.20730453              1.27438786
    97   2                       0      6.6219135800000002      3.8231635900000001
    98   1               1.8022566      4.4146090600000001      5.0975514500000001
    99   1                       0      4.4146090600000001                       0
   100   2               1.8022566      6.6219135800000002              1.27438786
   101   2      2.7033849000000001      6.6219135800000002      3.8231635900000001
   102   2      4.5056415000000003      4.4146090600000001      5.0975514500000001
   103   1      2.7033849000000001      4.4146090600000001                       0
   104   1      4.5056415000000003      6.6219135800000002              1.27438786
   105   2      5.4067698000000002      6.6219135800000002      3.8231635900000001
   106   2      7.2090263999999999      4.4146090600000001      5.0975514500000001
   107   1      5.4067698000000002      4.4146090600000001                       0
   108   2      7.2090263999999999      6.6219135800000002              1.27438786
   109   1      8.1101547000000007      6.6219135800000002      3.8231635900000001
   110   1      9.9124113000000005      4.4146090600000001      5.0975514500000001
   111   1      8.1101547000000007      4.4146090600000001                       0
   112   1      9.9124113000000005      6.6219135800000002              1.27438786
   113   2              10.8135396      6.6219135800000002      3.8231635900000001
   114   2              12.6157962      4.4146090600000001      5.0975514500000001
   115   2              10.8135396      4.4146090600000001                       0
   116   1              12.6157962      6.6219135800000002              1.27438786
   117   1              13.5169245      6.6219135800000002      3.8231635900000001
   118   1              15.3191811      4.4146090600000001      5.0975514500000001
   119   2              13.5169245      4.4146090600000001                       0
   120   1              15.3191811      6.6219135800000002              1.27438786
   121   1      16.220309400000001      6.6219135800000002      3.8231635900000001
   122   1      18.022566000000001      4.4146090600000001      5.0975514500000001
   123   2      16.220309400000001      4.4146090600000001                       0
   124   1      18.022566000000001      6.6219135800000002              1.27438786
   125   2      18.923694300000001      6.6219135800000002      3.8231635900000001
   126   2      20.725950900000001      4.4146090600000001      5.0975514500000001
   127   1      18.923694300000001      4.4146090600000001                       0
   128   2      20.725950900000001      6.6219135800000002              1.27438786
   129   1      21.627079200000001      6.6219135800000002      3.8231635900000001
   130   2              23.4293358      4.4146090600000001      5.0975514500000001
   131   1      21.627079200000001      4.4146090600000001                       0
   132   1              23.4293358      6.6219135800000002              1.27438786
   133   2              24.3304641      6.6219135800000002      3.8231635900000001
   134   1              26.1327207      4.4146090600000001      5.0975514500000001
   135   1              24.3304641      4.4146090600000001                       0
   136   2              26.1327207      6.6219135800000002              1.27438786
   137   2               27.033849      6.6219135800000002      3.8231635900000001
   138   2              28.8361056      4.4146090600000001      5.0975514500000001
   139   2               27.033849      4.4146090600000001                       0
   140   1              28.8361056      6.6219135800000002              1.27438786
   141   2              29.7372339      6.6219135800000002      3.8231635900000001
   142   1             31.53949051      4.4146090600000001      5.0975514500000001
   143   2              29.7372339      4.4146090600000001                       0
   144   2             31.53949051      6.6219135800000002              1.27438786
   145   1      32.440618809999997      6.6219135800000002      3.8231635900000001
   146   1      34.242875410000003      4.4146090600000001      5.0975514500000001
   147   2      32.440618809999997      4.4146090600000001                       0
   148   1      34.242875410000003      6.6219135800000002              1.27438786
   149   1             35.14400371      6.6219135800000002      3.8231635900000001
   150   1             36.94626031      4.4146090600000001      5.0975514500000001
   151   1             35.14400371      4.4146090600000001                       0
   152   2             36.94626031      6.6219135800000002              1.27438786
   153   1      37.847388610000003      6.6219135800000002      3.8231635900000001
   154   2      39.649645210000003      4.4146090600000001      5.0975514500000001
   155   2      37.847388610000003      4.4146090600000001                       0
   156   2      39.649645210000003      6.6219135800000002              1.27438786
   157   2      40.550773509999999      6.6219135800000002      3.8231635900000001
   158   2      42.353030109999999      4.4146090600000001      5.0975514500000001
   159   2      40.550773509999999      4.4146090600000001                       0
   160   1      42.353030109999999      6.6219135800000002              1.27438786
   161   1      43.254158410000002      6.6219135800000002      3.8231635900000001
   162   1      45.056415010000002      4.4146090600000001      5.0975514500000001
   163   2      43.254158410000002      4.4146090600000001                       0
   164   1      45.056415010000002      6.6219135800000002              1.27438786
   165   1      45.957543309999998      6.6219135800000002      3.8231635900000001
   166   1      47.759799909999998      4.4146090600000001      5.0975514500000001
   167   1      45.957543309999998      4.4146090600000001                       0
   168   2      47.759799909999998      6.6219135800000002              1.27438786
   169   1      48.660928210000002      6.6219135800000002      3.8231635900000001
   170   1      50.463184810000001      4.4146090600000001      5.0975514500000001
   171   1      48.660928210000002      4.4146090600000001                       0
   172   2      50.463184810000001      6.6219135800000002              1.27438786
   173   2      51.364313109999998      6.6219135800000002      3.8231635900000001
   174   2      53.166569709999997      4.4146090600000001      5.0975514500000001
   175   2      51.364313109999998      4.4146090600000001                       0
   176   2      53.166569709999997      6.6219135800000002              1.27438786
   177   1      54.067698010000001      6.6219135800000002      3.8231635900000001
   178   1      55.869954610000001      4.4146090600000001      5.0975514500000001
   179   1      54.067698010000001      4.4146090600000001                       0
   180   2      55.869954610000001      6.6219135800000002              1.27438786
   181   1      56.771082909999997      6.6219135800000002      3.8231635900000001
   182   2      58.573339509999997      4.4146090600000001      5.0975514500000001
   183   2      56.771082909999997      4.4146090600000001                       0
   184   2      58.573339509999997      6.6219135800000002              1.27438786
   185   1             59.47446781      6.6219135800000002      3.8231635900000001
   186   2             61.27672441      4.4146090600000001      5.0975514500000001
   187   2             59.47446781      4.4146090600000001                       0
   188   2             61.27672441      6.6219135800000002              1.27438786
   189   1      62.177852710000003      6.6219135800000002      3.8231635900000001
   190   1      63.980109310000003      4.4146090600000001      5.0975514500000001
   191   1      62.177852710000003      4.4146090600000001                       0
   192   1      63.980109310000003      6.6219135800000002              1.27438786
   193   2                       0      11.036522639999999      3.8231635900000001
   194   2               1.8022566      8.8292181099999993      5.0975514500000001
   195   1                       0      8.8292181099999993                       0
   196   1               1.8022566      11.036522639999999              1.27438786
   197   1      2.7033849000000001      11.036522639999999      3.8231635900000001
   198   2      4.5056415000000003      8.8292181099999993      5.0975514500000001
   199   1      2.7033849000000001      8.8292181099999993                       0
   200   2      4.5056415000000003      11.036522639999999              1.27438786
   201   1      5.4067698000000002      11.036522639999999      3.8231635900000001
   202   2      7.2090263999999999      8.8292181099999993      5.0975514500000001
   203   2      5.4067698000000002      8.8292181099999993                       0
   204   2      7.2090263999999999      11.036522639999999              1.27438786
   205   2      8.1101547000000007      11.036522639999999      3.8231635900000001
   206   1      9.9124113000000005      8.8292181099999993      5.0975514500000001
   207   1      8.1101547000000007      8.8292181099999993                       0
   208   1      9.9124113000000005      11.036522639999999              1.27438786
   209   1              10.8135396      11.036522639999999      3.8231635900000001
   210   1              12.6157962      8.8292181099999993      5.0975514500000001
   211   1              10.8135396      8.8292181099999993                       0
   212   2              12.6157962      11.036522639999999              1.27438786
   213   1              13.5169245      11.036522639999999      3.8231635900000001
   214   1              15.3191811      8.8292181099999993      5.0975514500000001
   215   1              13.5169245      8.8292181099999993                       0
   216   2              15.3191811      11.036522639999999              1.27438786
   217   1      16.220309400000001      11.036522639999999      3.8231635900000001
   218   1      18.022566000000001      8.8292181099999993      5.0975514500000001
   219   1      16.220309400000001      8.8292181099999993                       0
   220   1      18.022566000000001      11.036522639999999              1.27438786
   221   1      18.923694300000001      11.036522639999999      3.8231635900000001
   222   2      20.725950900000001      8.8292181099999993      5.0975514500000001
   223   1      18.923694300000001      8.8292181099999993                       0
   224   1      20.725950900000001      11.036522639999999              1.27438786
   225   1      21.627079200000001      11.036522639999999      3.8231635900000001
   226   2              23.4293358      8.8292181099999993      5.0975514500000001
   227   2      21.627079200000001      8.8292181099999993                       0
   228   2              23.4293358      11.036522639999999              1.27438786
   229   1              24.3304641      11.036522639999999      3.8231635900000001
   230   1              26.1327207      8.8292181099999993      5.0975514500000001
   231   2              24.3304641      8.8292181099999993                       0
   232   1              26.1327207      11.036522639999999              1.27438786
   233   1               27.033849      11.036522639999999      3.8231635900000001
   234   2              28.8361056      8.8292181099999993      5.0975514500000001
   235   1               27.033849      8.8292181099999993                       0
   236   2              28.8361056      11.036522639999999              1.27438786
   237   2              29.7372339      11.036522639999999      3.8231635900000001
   238   1             31.53949051      8.8292181099999993      5.0975514500000001
   239   1              29.7372339      8.8292181099999993                       0
   240   1             31.53949051      11.036522639999999              1.27438786
   241   1      32.440618809999997      11.036522639999999      3.8231635900000001
   242   1      34.242875410000003      8.8292181099999993      5.0975514500000001
   243   1      32.440618809999997      8.8292181099999993                       0
   244   1      34.242875410000003      11.036522639999999              1.27438786
   245   2             35.14400371      11.036522639999999      3.8231635900000001
   246   2             36.94626031      8.8292181099999993      5.0975514500000001
   247   1             35.14400371      8.8292181099999993                       0
   248   1             36.94626031      11.036522639999999              1.27438786
   249   2      37.847388610000003      11.036522639999999      3.8231635900000001
   250   2      39.649645210000003      8.8292181099999993      5.0975514500000001
   251   1      37.847388610000003      8.8292181099999993                       0
   252   1      39.649645210000003      11.036522639999999              1.27438786
   253   2      40.550773509999999      11.036522639999999      3.8231635900000001
   254   2      42.353030109999999      8.8292181099999993      5.0975514500000001
   255   2      40.550773509999999      8.8292181099999993                       0
   256   2      42.353030109999999      11.036522639999999              1.27438786
   257   2      43.254158410000002      11.036522639999999      3.8231635900000001
   258   2      45.056415010000002      8.8292181099999993      5.0975514500000001
   259   2      43.254158410000002      8.8292181099999993                       0
   260   2      45.056415010000002      11.036522639999999              1.27438786
   261   2      45.957543309999998      11.036522639999999      3.8231635900000001
   262   2      47.759799909999998      8.8292181099999993      5.0975514500000001
   263   1      45.957543309999998      8.8292181099999993                       0
   264   2      47.759799909999998      11.036522639999999              1.27438786
   265   2      48.660928210000002      11.036522639999999      3.8231635900000001
   266   2      50.463184810000001      8.8292181099999993      5.0975514500000001
   267   2      48.660928210000002      8.8292181099999993                       0
   268   1      50.463184810000001      11.036522639999999              1.27438786
   269   1      51.364313109999998      11.036522639999999      3.8231635900000001
   270   2      53.166569709999997      8.8292181099999993      5.0975514500000001
   271   1      51.364313109999998      8.8292181099999993                       0
   272   1      53.166569709999997      11.036522639999999              1.27438786
   273   2      54.067698010000001      11.036522639999999      3.8231635900000001
   274   2      55.869954610000001      8.8292181099999993      5.0975514500000001
   275   2      54.067698010000001      8.8292181099999993                       0
   276   1      55.869954610000001      11.036522639999999              1.27438786
   277   1      56.771082909999997      11.036522639999999      3.8231635900000001
   278   1      58.573339509999997      8.8292181099999993      5.0975514500000001
   279   1      56.771082909999997      8.8292181099999993                       0
   280   2      58.573339509999997      11.036522639999999              1.27438786
   281   1             59.47446781      11.036522639999999      3.8231635900000001
   282   1             61.27672441      8.8292181099999993      5.0975514500000001
   283   1             59.47446781      8.8292181099999993                       0
   284   2             61.27672441      11.036522639999999              1.27438786
   285   2      62.177852710000003      11.036522639999999      3.8231635900000001
   286   1      63.980109310000003      8.8292181099999993      5.0975514500000001
   287   1      62.177852710000003      8.8292181099999993                       0
   288   1      63.980109310000003      11.036522639999999              1.27438786
   289   1                       0      15.451131699999999      3.8231635900000001
   290   1               1.8022566      13.243827169999999      5.0975514500000001
   291   1                       0      13.243827169999999                       0
   292   1               1.8022566      15.451131699999999              1.27438786
   293   1      2.7033849000000001      15.451131699999999      3.8231635900000001
   294   2      4.5056415000000003      13.243827169999999      5.0975514500000001
   295   1      2.7033849000000001      13.243827169999999                       0
   296   1      4.5056415000000003      15.451131699999999              1.27438786
   297   1      5.4067698000000002      15.451131699999999      3.8231635900000001
   298   1      7.2090263999999999      13.243827169999999      5.0975514500000001
   299   2      5.4067698000000002      13.243827169999999                       0
   300   1      7.2090263999999999      15.451131699999999              1.27438786
   301   1      8.1101547000000007      15.451131699999999      3.8231635900000001
   302   2      9.9124113000000005      13.243827169999999      5.0975514500000001
   303   2      8.1101547000000007      13.243827169999999                       0
   304   1      9.9124113000000005      15.451131699999999              1.27438786
   305   2              10.8135396      15.451131699999999      3.8231635900000001
   306   2              12.6157962      13.243827169999999      5.0975514500000001
   307   1              10.8135396      13.243827169999999                       0
   308   2              12.6157962      15.451131699999999              1.27438786
   309   2              13.5169245      15.451131699999999      3.8231635900000001
   310   2              15.3191811      13.243827169999999      5.0975514500000001
   311   1              13.5169245      13.243827169999999                       0
   312   1              15.3191811      15.451131699999999              1.27438786
   313   1      16.220309400000001      15.451131699999999      3.8231635900000001
   314   2      18.022566000000001      13.243827169999999      5.0975514500000001
   315   1      16.220309400000001      13.243827169999999                       0
   316   1      18.022566000000001      15.451131699999999              1.27438786
   317   2      18.923694300000001      15.451131699999999      3.8231635900000001
   318   2      20.725950900000001      13.243827169999999      5.0975514500000001
   319   2      18.923694300000001      13.243827169999999                       0
   320   1      20.725950900000001      15.451131699999999              1.27438786
   321   2      21.627079200000001      15.451131699999999      3.8231635900000001
   322   1              23.4293358      13.243827169999999      5.0975514500000001
   323   1      21.627079200000001      13.243827169999999                       0
   324   2              23.4293358      15.451131699999999              1.27438786
   325   2              24.3304641      15.451131699999999      3.8231635900000001
   326   2              26.1327207      13.243827169999999      5.0975514500000001
   327   2              24.3304641      13.243827169999999                       0
   328   2              26.1327207      15.451131699999999              1.27438786
   329   1               27.033849      15.451131699999999      3.8231635900000001
   330   1              28.8361056      13.243827169999999      5.0975514500000001
   331   1               27.033849      13.243827169999999                       0
   332   1              28.8361056      15.451131699999999              1.27438786
   333   1              29.7372339      15.451131699999999      3.8231635900000001
   334   1             31.53949051      13.243827169999999      5.0975514500000001
   335   1              29.7372339      13.243827169999999                       0
   336   1             31.53949051      15.451131699999999              1.27438786
   337   2      32.440618809999997      15.451131699999999      3.8231635900000001
   338   2      34.242875410000003      13.243827169999999      5.0975514500000001
   339   1      32.440618809999997      13.243827169999999                       0
   340   1      34.242875410000003      15.451131699999999              1.27438786
   341   2             35.14400371      15.451131699999999      3.8231635900000001
   342   2             36.94626031      13.243827169999999      5.0975514500000001
   343   2             35.14400371      13.243827169999999                       0
   344   1             36.94626031      15.451131699999999              1.27438786
   345   2      37.847388610000003      15.451131699999999      3.8231635900000001
   346   2      39.649645210000003      13.243827169999999      5.0975514500000001
   347   1      37.847388610000003      13.243827169999999                       0
   348   1      39.649645210000003      15.451131699999999              1.27438786
   349   1      40.550773509999999      15.451131699999999      3.8231635900000001
   350   2      42.353030109999999      13.243827169999999      5.0975514500000001
   351   1      40.550773509999999      13.243827169999999                       0
   352   2      42.353030109999999      15.451131699999999              1.27438786
   353   1      43.254158410000002      15.451131699999999      3.8231635900000001
   354   2      45.056415010000002      13.243827169999999      5.0975514500000001
   355   1      43.254158410000002      13.243827169999999                       0
   356   2      45.056415010000002      15.451131699999999              1.27438786
   357   2      45.957543309999998      15.451131699999999      3.8231635900000001
   358   2      47.759799909999998      13.243827169999999      5.0975514500000001