/home/sez26/TIGP-IIP/HEA_compression/LMP_Files/Var2/100/HEA_II.lmp (written by ASE) 

4000 	 atoms 
5  atom types
0.0      62.432000000000002  xlo xhi
0.0      31.216000000000001  ylo yhi
0.0      31.216000000000001  zlo zhi


Atoms 

     1   1                       0                       0                       0
     2   1      3.1215999999999999                       0                       0
     3   1      6.2431999999999999                       0                       0
     4   1      9.3648000000000007                       0                       0
     5   2                 12.4864                       0                       0
     6   2      15.608000000000001                       0                       0
     7   2      18.729600000000001                       0                       0
     8   1      21.851199999999999                       0                       0
     9   1      24.972799999999999                       0                       0
    10   1                 28.0944                       0                       0
    11   2      31.216000000000001                       0                       0
    12   1      34.337600000000002                       0                       0
    13   2      37.459200000000003                       0                       0
    14   2      40.580800000000004                       0                       0
    15   2      43.702399999999997                       0                       0
    16   2      46.823999999999998                       0                       0
    17   1      49.945599999999999                       0                       0
    18   1                 53.0672                       0                       0
    19   2      56.188800000000001                       0                       0
    20   2      59.310400000000001                       0                       0
    21   2                       0      3.1215999999999999                       0
    22   2      3.1215999999999999      3.1215999999999999                       0
    23   1      6.2431999999999999      3.1215999999999999                       0
    24   1      9.3648000000000007      3.1215999999999999                       0
    25   2                 12.4864      3.1215999999999999                       0
    26   1      15.608000000000001      3.1215999999999999                       0
    27   1      18.729600000000001      3.1215999999999999                       0
    28   1      21.851199999999999      3.1215999999999999                       0
    29   2      24.972799999999999      3.1215999999999999                       0
    30   2                 28.0944      3.1215999999999999                       0
    31   1      31.216000000000001      3.1215999999999999                       0
    32   1      34.337600000000002      3.1215999999999999                       0
    33   1      37.459200000000003      3.1215999999999999                       0
    34   1      40.580800000000004      3.1215999999999999                       0
    35   2      43.702399999999997      3.1215999999999999                       0
    36   1      46.823999999999998      3.1215999999999999                       0
    37   2      49.945599999999999      3.1215999999999999                       0
    38   1                 53.0672      3.1215999999999999                       0
    39   1      56.188800000000001      3.1215999999999999                       0
    40   2      59.310400000000001      3.1215999999999999                       0
    41   1                       0      6.2431999999999999                       0
    42   1      3.1215999999999999      6.2431999999999999                       0
    43   2      6.2431999999999999      6.2431999999999999                       0
    44   2      9.3648000000000007      6.2431999999999999                       0
    45   2                 12.4864      6.2431999999999999                       0
    46   1      15.608000000000001      6.2431999999999999                       0
    47   2      18.729600000000001      6.2431999999999999                       0
    48   1      21.851199999999999      6.2431999999999999                       0
    49   1      24.972799999999999      6.2431999999999999                       0
    50   1                 28.0944      6.2431999999999999                       0
    51   2      31.216000000000001      6.2431999999999999                       0
    52   1      34.337600000000002      6.2431999999999999                       0
    53   1      37.459200000000003      6.2431999999999999                       0
    54   2      40.580800000000004      6.2431999999999999                       0
    55   1      43.702399999999997      6.2431999999999999                       0
    56   1      46.823999999999998      6.2431999999999999                       0
    57   2      49.945599999999999      6.2431999999999999                       0
    58   1                 53.0672      6.2431999999999999                       0
    59   2      56.188800000000001      6.2431999999999999                       0
    60   1      59.310400000000001      6.2431999999999999                       0
    61   1                       0      9.3648000000000007                       0
    62   1      3.1215999999999999      9.3648000000000007                       0
    63   2      6.2431999999999999      9.3648000000000007                       0
    64   2      9.3648000000000007      9.3648000000000007                       0
    65   1                 12.4864      9.3648000000000007                       0
    66   1      15.608000000000001      9.3648000000000007                       0
    67   2      18.729600000000001      9.3648000000000007                       0
    68   1      21.851199999999999      9.3648000000000007                       0
    69   2      24.972799999999999      9.3648000000000007                       0
    70   2                 28.0944      9.3648000000000007                       0
    71   1      31.216000000000001      9.3648000000000007                       0
    72   1      34.337600000000002      9.3648000000000007                       0
    73   1      37.459200000000003      9.3648000000000007                       0
    74   2      40.580800000000004      9.3648000000000007                       0
    75   1      43.702399999999997      9.3648000000000007                       0
    76   1      46.823999999999998      9.3648000000000007                       0
    77   2      49.945599999999999      9.3648000000000007                       0
    78   1                 53.0672      9.3648000000000007                       0
    79   2      56.188800000000001      9.3648000000000007                       0
    80   2      59.310400000000001      9.3648000000000007                       0
    81   2                       0                 12.4864                       0
    82   1      3.1215999999999999                 12.4864                       0
    83   2      6.2431999999999999                 12.4864                       0
    84   1      9.3648000000000007                 12.4864                       0
    85   1                 12.4864                 12.4864                       0
    86   2      15.608000000000001                 12.4864                       0
    87   1      18.729600000000001                 12.4864                       0
    88   1      21.851199999999999                 12.4864                       0
    89   1      24.972799999999999                 12.4864                       0
    90   2                 28.0944                 12.4864                       0
    91   2      31.216000000000001                 12.4864                       0
    92   2      34.337600000000002                 12.4864                       0
    93   2      37.459200000000003                 12.4864                       0
    94   1      40.580800000000004                 12.4864                       0
    95   2      43.702399999999997                 12.4864                       0
    96   2      46.823999999999998                 12.4864                       0
    97   2      49.945599999999999                 12.4864                       0
    98   1                 53.0672                 12.4864                       0
    99   1      56.188800000000001                 12.4864                       0
   100   2      59.310400000000001                 12.4864                       0
   101   1                       0      15.608000000000001                       0
   102   1      3.1215999999999999      15.608000000000001                       0
   103   1      6.2431999999999999      15.608000000000001                       0
   104   2      9.3648000000000007      15.608000000000001                       0
   105   1                 12.4864      15.608000000000001                       0
   106   1      15.608000000000001      15.608000000000001                       0
   107   2      18.729600000000001      15.608000000000001                       0
   108   1      21.851199999999999      15.608000000000001                       0
   109   2      24.972799999999999      15.608000000000001                       0
   110   2                 28.0944      15.608000000000001                       0
   111   1      31.216000000000001      15.608000000000001                       0
   112   1      34.337600000000002      15.608000000000001                       0
   113   1      37.459200000000003      15.608000000000001                       0
   114   1      40.580800000000004      15.608000000000001                       0
   115   1      43.702399999999997      15.608000000000001                       0
   116   1      46.823999999999998      15.608000000000001                       0
   117   2      49.945599999999999      15.608000000000001                       0
   118   1                 53.0672      15.608000000000001                       0
   119   1      56.188800000000001      15.608000000000001                       0
   120   1      59.310400000000001      15.608000000000001                       0
   121   1                       0      18.729600000000001                       0
   122   1      3.1215999999999999      18.729600000000001                       0
   123   1      6.2431999999999999      18.729600000000001                       0
   124   1      9.3648000000000007      18.729600000000001                       0
   125   1                 12.4864      18.729600000000001                       0
   126   1      15.608000000000001      18.729600000000001                       0
   127   2      18.729600000000001      18.729600000000001                       0
   128   2      21.851199999999999      18.729600000000001                       0
   129   1      24.972799999999999      18.729600000000001                       0
   130   2                 28.0944      18.729600000000001                       0
   131   1      31.216000000000001      18.729600000000001                       0
   132   2      34.337600000000002      18.729600000000001                       0
   133   1      37.459200000000003      18.729600000000001                       0
   134   2      40.580800000000004      18.729600000000001                       0
   135   1      43.702399999999997      18.729600000000001                       0
   136   2      46.823999999999998      18.729600000000001                       0
   137   2      49.945599999999999      18.729600000000001                       0
   138   1                 53.0672      18.729600000000001                       0
   139   1      56.188800000000001      18.729600000000001                       0
   140   1      59.310400000000001      18.729600000000001                       0
   141   2                       0      21.851199999999999                       0
   142   2      3.1215999999999999      21.851199999999999                       0
   143   1      6.2431999999999999      21.851199999999999                       0
   144   1      9.3648000000000007      21.851199999999999                       0
   145   1                 12.4864      21.851199999999999                       0
   146   1      15.608000000000001      21.851199999999999                       0
   147   2      18.729600000000001      21.851199999999999                       0
   148   2      21.851199999999999      21.851199999999999                       0
   149   2      24.972799999999999      21.851199999999999                       0
   150   1                 28.0944      21.851199999999999                       0
   151   2      31.216000000000001      21.851199999999999                       0
   152   2      34.337600000000002      21.851199999999999                       0
   153   1      37.459200000000003      21.851199999999999                       0
   154   2      40.580800000000004      21.851199999999999                       0
   155   2      43.702399999999997      21.851199999999999                       0
   156   2      46.823999999999998      21.851199999999999                       0
   157   1      49.945599999999999      21.851199999999999                       0
   158   2                 53.0672      21.851199999999999                       0
   159   1      56.188800000000001      21.851199999999999                       0
   160   1      59.310400000000001      21.851199999999999                       0
   161   2                       0      24.972799999999999                       0
   162   2      3.1215999999999999      24.972799999999999                       0
   163   2      6.2431999999999999      24.972799999999999                       0
   164   2      9.3648000000000007      24.972799999999999                       0
   165   1                 12.4864      24.972799999999999                       0
   166   2      15.608000000000001      24.972799999999999                       0
   167   2      18.729600000000001      24.972799999999999                       0
   168   1      21.851199999999999      24.972799999999999                       0
   169   2      24.972799999999999      24.972799999999999                       0
   170   1                 28.0944      24.972799999999999                       0
   171   1      31.216000000000001      24.972799999999999                       0
   172   1      34.337600000000002      24.972799999999999                       0
   173   1      37.459200000000003      24.972799999999999                       0
   174   1      40.580800000000004      24.972799999999999                       0
   175   1      43.702399999999997      24.972799999999999                       0
   176   1      46.823999999999998      24.972799999999999                       0
   177   1      49.945599999999999      24.972799999999999                       0
   178   2                 53.0672      24.972799999999999                       0
   179   1      56.188800000000001      24.972799999999999                       0
   180   1      59.310400000000001      24.972799999999999                       0
   181   2                       0                 28.0944                       0
   182   1      3.1215999999999999                 28.0944                       0
   183   2      6.2431999999999999                 28.0944                       0
   184   2      9.3648000000000007                 28.0944                       0
   185   2                 12.4864                 28.0944                       0
   186   2      15.608000000000001                 28.0944                       0
   187   2      18.729600000000001                 28.0944                       0
   188   1      21.851199999999999                 28.0944                       0
   189   2      24.972799999999999                 28.0944                       0
   190   2                 28.0944                 28.0944                       0
   191   1      31.216000000000001                 28.0944                       0
   192   1      34.337600000000002                 28.0944                       0
   193   2      37.459200000000003                 28.0944                       0
   194   1      40.580800000000004                 28.0944                       0
   195   2      43.702399999999997                 28.0944                       0
   196   1      46.823999999999998                 28.0944                       0
   197   1      49.945599999999999                 28.0944                       0
   198   1                 53.0672                 28.0944                       0
   199   2      56.188800000000001                 28.0944                       0
   200   1      59.310400000000001                 28.0944                       0
   201   1                       0                       0      3.1215999999999999
   202   1      3.1215999999999999                       0      3.1215999999999999
   203   1      6.2431999999999999                       0      3.1215999999999999
   204   1      9.3648000000000007                       0      3.1215999999999999
   205   2                 12.4864                       0      3.1215999999999999
   206   1      15.608000000000001                       0      3.1215999999999999
   207   2      18.729600000000001                       0      3.1215999999999999
   208   1      21.851199999999999                       0      3.1215999999999999
   209   2      24.972799999999999                       0      3.1215999999999999
   210   1                 28.0944                       0      3.1215999999999999
   211   2      31.216000000000001                       0      3.1215999999999999
   212   2      34.337600000000002                       0      3.1215999999999999
   213   2      37.459200000000003                       0      3.1215999999999999
   214   1      40.580800000000004                       0      3.1215999999999999
   215   2      43.702399999999997                       0      3.1215999999999999
   216   2      46.823999999999998                       0      3.1215999999999999
   217   2      49.945599999999999                       0      3.1215999999999999
   218   1                 53.0672                       0      3.1215999999999999
   219   2      56.188800000000001                       0      3.1215999999999999
   220   1      59.310400000000001                       0      3.1215999999999999
   221   1                       0      3.1215999999999999      3.1215999999999999
   222   1      3.1215999999999999      3.1215999999999999      3.1215999999999999
   223   1      6.2431999999999999      3.1215999999999999      3.1215999999999999
   224   2      9.3648000000000007      3.1215999999999999      3.1215999999999999
   225   1                 12.4864      3.1215999999999999      3.1215999999999999
   226   2      15.608000000000001      3.1215999999999999      3.1215999999999999
   227   1      18.729600000000001      3.1215999999999999      3.1215999999999999
   228   2      21.851199999999999      3.1215999999999999      3.1215999999999999
   229   2      24.972799999999999      3.1215999999999999      3.1215999999999999
   230   2                 28.0944      3.1215999999999999      3.1215999999999999
   231   1      31.216000000000001      3.1215999999999999      3.1215999999999999
   232   1      34.337600000000002      3.1215999999999999      3.1215999999999999
   233   1      37.459200000000003      3.1215999999999999      3.1215999999999999
   234   2      40.580800000000004      3.1215999999999999      3.1215999999999999
   235   1      43.702399999999997      3.1215999999999999      3.1215999999999999
   236   2      46.823999999999998      3.1215999999999999      3.1215999999999999
   237   2      49.945599999999999      3.1215999999999999      3.1215999999999999
   238   1                 53.0672      3.1215999999999999      3.1215999999999999
   239   1      56.188800000000001      3.1215999999999999      3.1215999999999999
   240   1      59.310400000000001      3.1215999999999999      3.1215999999999999
   241   1                       0      6.2431999999999999      3.1215999999999999
   242   2      3.1215999999999999      6.2431999999999999      3.1215999999999999
   243   2      6.2431999999999999      6.2431999999999999      3.1215999999999999
   244   1      9.3648000000000007      6.2431999999999999      3.1215999999999999
   245   1                 12.4864      6.2431999999999999      3.1215999999999999
   246   2      15.608000000000001      6.2431999999999999      3.1215999999999999
   247   1      18.729600000000001      6.2431999999999999      3.1215999999999999
   248   1      21.851199999999999      6.2431999999999999      3.1215999999999999
   249   1      24.972799999999999      6.2431999999999999      3.1215999999999999
   250   2                 28.0944      6.2431999999999999      3.1215999999999999
   251   2      31.216000000000001      6.2431999999999999      3.1215999999999999
   252   2      34.337600000000002      6.2431999999999999      3.1215999999999999
   253   2      37.459200000000003      6.2431999999999999      3.1215999999999999
   254   2      40.580800000000004      6.2431999999999999      3.1215999999999999
   255   2      43.702399999999997      6.2431999999999999      3.1215999999999999
   256   2      46.823999999999998      6.2431999999999999      3.1215999999999999
   257   1      49.945599999999999      6.2431999999999999      3.1215999999999999
   258   1                 53.0672      6.2431999999999999      3.1215999999999999
   259   2      56.188800000000001      6.2431999999999999      3.1215999999999999
   260   1      59.310400000000001      6.2431999999999999      3.1215999999999999
   261   2                       0      9.3648000000000007      3.1215999999999999
   262   2      3.1215999999999999      9.3648000000000007      3.1215999999999999
   263   1      6.2431999999999999      9.3648000000000007      3.1215999999999999
   264   1      9.3648000000000007      9.3648000000000007      3.1215999999999999
   265   1                 12.4864      9.3648000000000007      3.1215999999999999
   266   2      15.608000000000001      9.3648000000000007      3.1215999999999999
   267   1      18.729600000000001      9.3648000000000007      3.1215999999999999
   268   1      21.851199999999999      9.3648000000000007      3.1215999999999999
   269   1      24.972799999999999      9.3648000000000007      3.1215999999999999
   270   2                 28.0944      9.3648000000000007      3.1215999999999999
   271   2      31.216000000000001      9.3648000000000007      3.1215999999999999
   272   1      34.337600000000002      9.3648000000000007      3.1215999999999999
   273   2      37.459200000000003      9.3648000000000007      3.1215999999999999
   274   2      40.580800000000004      9.3648000000000007      3.1215999999999999
   275   1      43.702399999999997      9.3648000000000007      3.1215999999999999
   276   2      46.823999999999998      9.3648000000000007      3.1215999999999999
   277   2      49.945599999999999      9.3648000000000007      3.1215999999999999
   278   1                 53.0672      9.3648000000000007      3.1215999999999999
   279   1      56.188800000000001      9.3648000000000007      3.1215999999999999
   280   2      59.310400000000001      9.3648000000000007      3.1215999999999999
   281   2                       0                 12.4864      3.1215999999999999
   282   2      3.1215999999999999                 12.4864      3.1215999999999999
   283   1      6.2431999999999999                 12.4864      3.1215999999999999
   284   1      9.3648000000000007                 12.4864      3.1215999999999999
   285   2                 12.4864                 12.4864      3.1215999999999999
   286   2      15.608000000000001                 12.4864      3.1215999999999999
   287   1      18.729600000000001                 12.4864      3.1215999999999999
   288   1      21.851199999999999                 12.4864      3.1215999999999999
   289   1      24.972799999999999                 12.4864      3.1215999999999999
   290   1                 28.0944                 12.4864      3.1215999999999999
   291   1      31.216000000000001                 12.4864      3.1215999999999999
   292   1      34.337600000000002                 12.4864      3.1215999999999999
   293   1      37.459200000000003                 12.4864      3.1215999999999999
   294   1      40.580800000000004                 12.4864      3.1215999999999999
   295   1      43.702399999999997                 12.4864      3.1215999999999999
   296   2      46.823999999999998                 12.4864      3.1215999999999999
   297   2      49.945599999999999                 12.4864      3.1215999999999999
   298   1                 53.0672                 12.4864      3.1215999999999999
   299   2      56.188800000000001                 12.4864      3.1215999999999999
   300   2      59.310400000000001                 12.4864      3.1215999999999999
   301   1                       0      15.608000000000001      3.1215999999999999
   302   2      3.1215999999999999      15.608000000000001      3.1215999999999999
   303   2      6.2431999999999999      15.608000000000001      3.1215999999999999
   304   1      9.3648000000000007      15.608000000000001      3.1215999999999999
   305   1                 12.4864      15.608000000000001      3.1215999999999999
   306   2      15.608000000000001      15.608000000000001      3.1215999999999999
   307   2      18.729600000000001      15.608000000000001      3.1215999999999999
   308   2      21.851199999999999      15.608000000000001      3.1215999999999999
   309   2      24.972799999999999      15.608000000000001      3.1215999999999999
   310   1                 28.0944      15.608000000000001      3.1215999999999999
   311   2      31.216000000000001      15.608000000000001      3.1215999999999999
   312   1      34.337600000000002      15.608000000000001      3.1215999999999999
   313   1      37.459200000000003      15.608000000000001      3.1215999999999999
   314   2      40.580800000000004      15.608000000000001      3.1215999999999999
   315   2      43.702399999999997      15.608000000000001      3.1215999999999999
   316   1      46.823999999999998      15.608000000000001      3.1215999999999999
   317   2      49.945599999999999      15.608000000000001      3.1215999999999999
   318   2                 53.0672      15.608000000000001      3.1215999999999999
   319   1      56.188800000000001      15.608000000000001      3.1215999999999999
   320   1      59.310400000000001      15.608000000000001      3.1215999999999999
   321   1                       0      18.729600000000001      3.1215999999999999
   322   1      3.1215999999999999      18.729600000000001      3.1215999999999999
   323   1      6.2431999999999999      18.729600000000001      3.1215999999999999
   324   2      9.3648000000000007      18.729600000000001      3.1215999999999999
   325   1                 12.4864      18.729600000000001      3.1215999999999999
   326   1      15.608000000000001      18.729600000000001      3.1215999999999999
   327   1      18.729600000000001      18.729600000000001      3.1215999999999999
   328   2      21.851199999999999      18.729600000000001      3.1215999999999999
   329   2      24.972799999999999      18.729600000000001      3.1215999999999999
   330   2                 28.0944      18.729600000000001      3.1215999999999999
   331   2      31.216000000000001      18.729600000000001      3.1215999999999999
   332   2      34.337600000000002      18.729600000000001      3.1215999999999999
   333   2      37.459200000000003      18.729600000000001      3.1215999999999999
   334   2      40.580800000000004      18.729600000000001      3.1215999999999999
   335   1      43.702399999999997      18.729600000000001      3.1215999999999999
   336   1      46.823999999999998      18.729600000000001      3.1215999999999999
   337   1      49.945599999999999      18.729600000000001      3.1215999999999999
   338   1                 53.0672      18.729600000000001      3.1215999999999999
   339   1      56.188800000000001      18.729600000000001      3.1215999999999999
   340   2      59.310400000000001      18.729600000000001      3.1215999999999999
   341   2                       0      21.851199999999999      3.1215999999999999
   342   2      3.1215999999999999      21.851199999999999      3.1215999999999999
   343   1      6.2431999999999999      21.851199999999999      3.1215999999999999
   344   2      9.3648000000000007      21.851199999999999      3.1215999999999999
   345   2                 12.4864      21.851199999999999      3.1215999999999999
   346   1      15.608000000000001      21.851199999999999      3.1215999999999999
   347   1      18.729600000000001      21.851199999999999      3.1215999999999999
   348   2      21.851199999999999      21.851199999999999      3.1215999999999999
   349   1      24.972799999999999      21.851199999999999      3.1215999999999999
   350   2                 28.0944      21.851199999999999      3.1215999999999999
   351   2      31.216000000000001      21.851199999999999      3.1215999999999999
   352   1      34.337600000000002      21.851199999999999      3.1215999999999999
   353   1      37.459200000000003      21.851199999999999      3.1215999999999999
   354   1      40.580800000000004      21.851199999999999      3.1215999999999999
   355   1      43.702399999999997      21.851199999999999      3.1215999999999999
   356   1      46.823999999999998      21.851199999999999      3.1215999999999999
   357   2      49.945599999999999      21.851199999999999      3.1215999999999999
   358   2                 53.0672      21.851199999999999      3.1215999999999999