LAMMPS data file via write_data, version 7 Feb 2024, timestep = 423, units = metal

16 atoms
5 atom types

-0.010918150142040143 6.266918150141997 xlo xhi
0.08245166372475152 6.1735483362753145 ylo yhi
0.08245166372473509 6.173548336275332 zlo zhi

Masses

1 58.693
2 58.933
3 47.867
4 91.224
5 178.49

Atoms # atomic

1 2 -0.010918150142039914 6.173548336275314 6.17354833627533 0 -1 -1
2 1 3.127999999999981 6.173548336275313 6.173548336275331 0 -1 -1
3 2 -0.0109181501420395 3.1280000000000334 6.173548336275329 0 0 -1
4 1 3.127999999999981 3.128000000000034 6.1735483362753305 0 0 -1
5 1 -0.010918150142036825 0.08245166372475152 3.1280000000000325 0 0 0
6 2 3.1279999999999784 6.173548336275313 3.1280000000000316 0 -1 0
7 2 -0.010918150142039342 3.128000000000031 3.128000000000031 0 0 0
8 1 3.127999999999981 3.128000000000032 3.128000000000032 0 0 0
9 4 1.5473209445523297 1.6046768513524154 1.6057748123723596 0 0 0
10 5 4.710827907861021 1.604745556031088 1.605706107693685 0 0 0
11 3 1.5346219813262036 4.64942219680975 1.603806879287718 0 0 0
12 3 4.721378018673758 4.6493552155630065 1.6038738605344591 0 0 0
13 3 1.534621981326203 1.6066447844370564 4.652126139465604 0 0 0
14 3 4.721378018673756 1.6065778031903153 4.652193120712348 0 0 0
15 5 1.5451720921389405 4.6512544439689725 4.65029389230638 0 0 0
16 4 4.708679055447627 4.651323148647648 4.650225187627707 0 0 0

Velocities

1 0 0 0
2 0 0 0
3 0 0 0
4 0 0 0
5 0 0 0
6 0 0 0
7 0 0 0
8 0 0 0
9 0 0 0
10 0 0 0
11 0 0 0
12 0 0 0
13 0 0 0
14 0 0 0
15 0 0 0
16 0 0 0
