LAMMPS data file via write_data, version 7 Feb 2024, timestep = 100000, units = metal

16 atoms
5 atom types

0 6.3517287856617 xlo xhi
0 6.12270398741257 ylo yhi
0 6.07734353644874 zlo zhi

Masses

1 58.693
2 58.933
3 47.867
4 91.224
5 178.49

Atoms # atomic

9 4 1.6323016771031607 1.4952582290940337 1.715485331191142 0 0 0
10 5 4.760167044351561 1.5079965435221219 1.3268959340646405 0 0 0
8 1 3.190081665892473 3.009782067882072 2.943951226384553 0 0 0
11 3 1.328654223693366 4.698802872778253 1.4449848002556902 0 0 0
4 1 2.9780548155930067 3.086714488017653 0.23907232392307792 0 0 0
2 1 2.962310429316118 6.068300958377825 0.13662144694209494 0 -1 0
12 3 4.7014067563029 4.527553213240232 1.6952529782823567 0 0 0
1 2 0.1764184665492646 0.24427303927236796 5.830136640819308 0 0 -1
3 2 0.30592133671764976 2.947742524669259 5.912825888222954 0 0 -1
13 3 1.537903628324985 1.494057948875859 4.618585877755315 0 0 0
5 1 6.172380566130597 0.04778479176066724 3.1358255860456685 -1 0 0
14 3 4.716654926213728 1.501733993889575 4.595430081731303 0 0 0
15 5 1.6836168021376197 4.64153228579237 4.419627216919144 0 0 0
7 2 6.259261458159817 3.068932337890801 3.1560671299285907 -1 0 0
6 2 3.331851011812788 6.026819067586149 3.0434172247434934 0 -1 0
16 4 4.777358019373181 4.580919758098285 4.848222539029916 0 0 0

Velocities

9 -0.8041495812243903 -1.9111898425504201 1.557164289544364
10 0.3167921004226723 0.24972713361915114 -0.4325653375112127
8 1.0463691433225932 -1.7254268791837195 -3.07881796975285
11 3.002701254805189 -1.8406241599413726 1.6880899546648829
4 -1.4678131851482965 0.12082150761766389 -0.3212109212689171
2 -5.111950498842807 3.7288406993526797 -4.6704927235773335
12 -7.302166309359298 0.6598125045667459 3.143999930251584
1 1.6379298162060842 0.7398330096771379 0.10921337085374622
3 -3.4185122819293055 -2.722806148536473 2.5682506991656644
13 0.755380706511172 2.770056019666759 1.5523014973995883
5 1.454988753670304 0.6841622362346438 4.834039882540393
14 4.0561404062944995 4.982598084158115 4.5032284478658315
15 1.264523830884754 -1.1711801229441188 -3.2017795357954104
7 0.2802929123016854 -0.07541934976053968 1.3868640058178026
6 0.4506660217535328 0.1582996731687572 -0.11324692029787134
16 0.7435478374804004 -0.313656105308307 -0.6292694966662349
