LAMMPS (7 Feb 2024 - Update 1)
OMP_NUM_THREADS environment is not set. Defaulting to 1 thread. (src/comm.cpp:98)
  using 1 OpenMP thread(s) per MPI task
units metal
atom_style atomic
read_data HEA_II.lmp
Reading data file ...
  orthogonal box = (0 0 0) to (6.256 6.256 6.256)
  1 by 1 by 1 MPI processor grid
  reading atoms ...
  16 atoms
  read_data CPU = 0.001 seconds
mass 1 58.693
mass 2 58.933
mass 3 47.867
mass 4 91.224
mass 5 178.49
pair_style snap 
pair_coeff * * HEA_var1.snapcoeff HEA_var1.snapparam Ni Co Ti Zr Hf
SNAP Element = Ni, Radius 1.805, Weight 0.43
SNAP Element = Co, Radius 1.81, Weight 0.48
SNAP Element = Ti, Radius 2.094, Weight 0.36
SNAP Element = Zr, Radius 2.28, Weight 0.35
SNAP Element = Hf, Radius 2.313, Weight 0.33
SNAP keyword rcutfac 1.0
SNAP keyword twojmax 8
SNAP keyword rfac0 0.99363
SNAP keyword rmin0 0.0
SNAP keyword bzeroflag 0
SNAP keyword wselfallflag 0
SNAP keyword chemflag 0
SNAP keyword bnormflag 0
SNAP keyword switchinnerflag 0
SNAP keyword quadraticflag 0
thermo_style	custom step temp pe pxx pyy pzz density
thermo 100
dump 1 all custom 100 min_dump.cfg id type x y z
min_style cg
fix 1 all box/relax aniso 0.0
minimize 0.0 0.02 5000 10000
Neighbor list info ...
  update: every = 1 steps, delay = 0 steps, check = yes
  max neighbors/atom: 2000, page size: 100000
  master list distance cutoff = 6.626
  ghost atom cutoff = 6.626
  binsize = 3.313, bins = 2 2 2
  1 neighbor lists, perpetual/occasional/extra = 1 0 0
  (1) pair snap, perpetual
      attributes: full, newton on
      pair build: full/bin/atomonly
      stencil: full/bin/3d
      bin: standard
WARNING: Energy due to 3 extra global DOFs will be included in minimizer energies
 (src/min.cpp:219)
Per MPI rank memory allocation (min/avg/max) = 4.573 | 4.573 | 4.573 Mbytes
   Step          Temp          PotEng          Pxx            Pyy            Pzz          Density    
         0   0             -123.22298     -62974.256     -79089.506     -79089.506      8.1479146    
       100   0             -123.45429     -24133.478     -40514.196     -40514.196      8.3734204    
       200   0             -123.52644      6296.4911     -5261.2607     -5261.2607      8.5527378    
       300   0             -123.5435       745.41392     -381.17623     -381.17623      8.5645462    
       322   0             -123.55226      23.288165     -6.9782511     -6.9782511      8.5651646    
Loop time of 1.45897 on 1 procs for 322 steps with 16 atoms

189.2% CPU use with 1 MPI tasks x 1 OpenMP threads

Minimization stats:
  Stopping criterion = force tolerance
  Energy initial, next-to-last, final = 
     -123.222978407214  -123.552255043276  -123.552259331151
  Force two-norm initial, final = 19.625945 0.010526948
  Force max component initial, final = 12.086449 0.0033737479
  Final line search alpha, max atom move = 0.0021285469 7.1811805e-06
  Iterations, force evaluations = 322 324

MPI task timing breakdown:
Section |  min time  |  avg time  |  max time  |%varavg| %total
---------------------------------------------------------------
Pair    | 1.4561     | 1.4561     | 1.4561     |   0.0 | 99.80
Neigh   | 0          | 0          | 0          |   0.0 |  0.00
Comm    | 0.00055711 | 0.00055711 | 0.00055711 |   0.0 |  0.04
Output  | 0.0001498  | 0.0001498  | 0.0001498  |   0.0 |  0.01
Modify  | 0          | 0          | 0          |   0.0 |  0.00
Other   |            | 0.002169   |            |       |  0.15

Nlocal:             16 ave          16 max          16 min
Histogram: 1 0 0 0 0 0 0 0 0 0
Nghost:            543 ave         543 max         543 min
Histogram: 1 0 0 0 0 0 0 0 0 0
Neighs:              0 ave           0 max           0 min
Histogram: 1 0 0 0 0 0 0 0 0 0
FullNghs:          952 ave         952 max         952 min
Histogram: 1 0 0 0 0 0 0 0 0 0

Total # of neighbors = 952
Ave neighs/atom = 59.5
Neighbor list builds = 0
Dangerous builds = 0
unfix 1
minimize 0.0 0.02 5000 10000
Per MPI rank memory allocation (min/avg/max) = 5.824 | 5.824 | 5.824 Mbytes
   Step          Temp          PotEng          Pxx            Pyy            Pzz          Density    
       322   0             -123.55226      23.288165     -6.9782511     -6.9782511      8.5651646    
       323   0             -123.55227      14.374291     -7.5416092     -7.5416092      8.5651646    
Loop time of 0.0134441 on 1 procs for 1 steps with 16 atoms

99.7% CPU use with 1 MPI tasks x 1 OpenMP threads

Minimization stats:
  Stopping criterion = force tolerance
  Energy initial, next-to-last, final = 
     -123.552259331151  -123.552259331151  -123.552268324558
  Force two-norm initial, final = 0.0098622122 0.0078992003
  Force max component initial, final = 0.0025131544 0.0029827463
  Final line search alpha, max atom move = 1 0.0029827463
  Iterations, force evaluations = 1 2

MPI task timing breakdown:
Section |  min time  |  avg time  |  max time  |%varavg| %total
---------------------------------------------------------------
Pair    | 0.013404   | 0.013404   | 0.013404   |   0.0 | 99.70
Neigh   | 0          | 0          | 0          |   0.0 |  0.00
Comm    | 5.415e-06  | 5.415e-06  | 5.415e-06  |   0.0 |  0.04
Output  | 0          | 0          | 0          |   0.0 |  0.00
Modify  | 0          | 0          | 0          |   0.0 |  0.00
Other   |            | 3.51e-05   |            |       |  0.26

Nlocal:             16 ave          16 max          16 min
Histogram: 1 0 0 0 0 0 0 0 0 0
Nghost:            543 ave         543 max         543 min
Histogram: 1 0 0 0 0 0 0 0 0 0
Neighs:              0 ave           0 max           0 min
Histogram: 1 0 0 0 0 0 0 0 0 0
FullNghs:          968 ave         968 max         968 min
Histogram: 1 0 0 0 0 0 0 0 0 0

Total # of neighbors = 968
Ave neighs/atom = 60.5
Neighbor list builds = 0
Dangerous builds = 0
undump 1
variable lenx equal lx
variable leny equal ly
variable lenz equal lz
compute sta all stress/atom NULL
compute vol_atom all voronoi/atom
variable	va atom c_vol_atom[1]
variable	sa_xx atom 1E-4*c_sta[1]/v_va
variable	sa_yy atom 1E-4*c_sta[2]/v_va
variable	sa_zz atom 1E-4*c_sta[3]/v_va
variable	sa_xy atom 1E-4*c_sta[4]/v_va
variable	sa_xz atom 1E-4*c_sta[5]/v_va
variable	sa_yz atom 1E-4*c_sta[6]/v_va
variable	sa_hydro atom (v_sa_xx+v_sa_yy+v_sa_zz)/3.0
variable	sa_von atom sqrt(0.5*((v_sa_xx-v_sa_yy)^2+(v_sa_yy-v_sa_zz)^2+(v_sa_zz-v_sa_xx)^2)+3.0*((v_sa_xy)^2+(v_sa_xz)^2+(v_sa_yz)^2))
timestep	0.001
neighbor	1.0 bin
neigh_modify	every 5 delay 0 check yes
reset_timestep	0
velocity all create 300.0 12345678
dump	1 all custom 1000 md_npt_dump.cfg id type x y z v_sa_hydro v_sa_von
fix 	1 all npt temp 300 300 0.1 aniso 0 0 1.0
fix 	avg all ave/time 10 500 50000 v_lenx v_leny v_lenz
fix __pylammps_internal_run_callback all python/invoke 1 end_of_step _PyLammps_end_of_step_callback
run 50000
Per MPI rank memory allocation (min/avg/max) = 4.3 | 4.3 | 4.3 Mbytes
   Step          Temp          PotEng          Pxx            Pyy            Pzz          Density    
         0   300           -123.55227      2595.2985      3409.6468      1996.6772      8.5651646    
       100   157.94175     -123.1806      -14948.646      1535.2178     -8307.5302      8.4095254    
       200   250.48432     -123.16517      28107.983     -8735.963       5935.789       8.5172992    
       300   237.84074     -123.05508     -15602.757      907.19222     -10300.738      8.3787713    
       400   385.52174     -123.0559      -4814.5371      19618.977      17896.857      8.5216797    
       500   232.25764     -122.8285      -10274.852     -22783.667     -5425.1448      8.3757199    
       600   350.7719      -123.07558      13676.31      -15961.903     -13629.862      8.403704     
       700   271.44695     -123.12654      2883.5911      33235.674      9801.5403      8.539857     
       800   220.89506     -123.13456     -20553.946     -15795.646     -6438.2652      8.4009574    
       900   243.40381     -123.19161     -1885.4372     -17840.49      -3037.7578      8.4370562    
      1000   366.66525     -123.07392      15600.197      7410.6349      747.19531      8.486103     
      1100   322.26209     -122.82998     -6295.3058      11042.423      1828.17        8.4218452    
      1200   295.76599     -122.89319      9582.9084      14437.572      6399.4605      8.5208619    
      1300   290.81073     -123.09562     -20059.259     -37710.45      -30566.085      8.2894392    
      1400   254.29174     -123.06418      9598.1487      6534.8221      39736.76       8.5698287    
      1500   248.77046     -123.01507      738.8144       27855.247     -821.86271      8.4944632    
      1600   401.51549     -123.13065     -11914.333     -25478.142     -54313.357      8.283495     
      1700   267.64767     -122.86156      30888.454      5137.1927      38054.432      8.5587676    
      1800   331.39783     -122.90602     -25703.849     -10216.906      18896.737      8.410784     
      1900   245.25139     -123.06202     -22613.38       8594.7699     -29114.534      8.4110853    
      2000   240.39519     -123.1172       36450.449      28656.008     -6473.6816      8.5675049    
      2100   184.52811     -122.93258      3449.0705     -21005.595      13995.391      8.4182701    
      2200   448.9438      -123.20084      1416.9259     -2823.446       24520.464      8.5076777    
      2300   317.51645     -123.0274      -15911.285      1917.5302     -18905.795      8.3997138    
      2400   210.32199     -122.93036     -629.97436      906.72805     -13219.503      8.3838566    
      2500   309.62346     -123.06585      25750.705      7230.9897      10445.065      8.5106583    
      2600   396.8446      -122.90969     -27004.248     -20880.431     -17915.904      8.2945979    
      2700   470.54947     -122.84093     -2381.8395      11774.803      25381.938      8.463781     
      2800   312.07768     -122.9005       12408.192      3668.3375     -10602.422      8.391054     
      2900   300.78537     -123.03448      5065.869      -1006.4736     -1219.7695      8.4301052    
      3000   301.6909      -123.09466     -25744.735     -137.40359     -9556.8013      8.3829962    
      3100   307.59518     -123.23203      1351.792      -15389.845     -1099.921       8.4448194    
      3200   240.64827     -123.23289      15723.674      8252.0967      12219.908      8.5072322    
      3300   366.39666     -123.35231     -5787.497      -2205.1376     -14864.536      8.4378198    
      3400   380.72603     -123.04614     -33150.915     -21889.276     -18942.871      8.2974737    
      3500   401.98181     -123.04755      26995.732      11101.714      21383.124      8.5334552    
      3600   302.0632      -123.02538      5713.0534     -8685.5575     -799.92196      8.4205836    
      3700   295.36008     -123.09246     -23848.977     -3729.1156     -29233.698      8.3465366    
      3800   318.82252     -123.15134      24282.89       39213.277      29487.833      8.6197582    
      3900   315.04201     -123.10208     -7595.8637     -34126.802     -17326.259      8.3222051    
      4000   260.25901     -122.8779      -20509.959     -16811.623     -1410.5782      8.3903613    
      4100   459.76811     -123.072        10607.446      38619.191      29169.759      8.5593393    
      4200   268.06777     -122.92328     -13308.917     -12485.841     -25470.255      8.3137438    
      4300   276.58876     -122.99254      37218.89      -8210.8981      5500.1351      8.5333826    
      4400   276.71473     -123.06916     -15848.986     -15641.739     -408.32578      8.3925887    
      4500   371.92201     -122.88016     -21561.57       39810.514      13056.195      8.4979451    
      4600   422.33169     -122.68824      21061.246      9963.0826      3365.3891      8.4177618    
      4700   270.4143      -122.56365      12602.105     -32498.187     -3618.5451      8.3348542    
      4800   259.91112     -122.83037      3867.9535      7368.5783      14552.207      8.4492745    
      4900   290.09936     -123.00213     -8780.6472      35540.257     -7548.062       8.5154459    
      5000   313.80139     -123.27078     -19248.097     -30215.467     -20908.065      8.3553636    
      5100   213.31515     -122.96763      18519.274     -9912.1394      22367.065      8.4964399    
      5200   369.29486     -123.04389      11752.239      16859.098      17116.026      8.4842906    
      5300   303.13893     -122.77087     -23353.497      2566.2868     -21621.011      8.3917354    
      5400   370.77668     -123.03535     -4914.4473     -3658.8528     -23864.072      8.3789007    
      5500   201.61306     -122.84999      36841.802      19472.047      36884.62       8.5624722    
      5600   243.60071     -123.08868     -168.94855     -23499.417     -4628.6253      8.4243051    
      5700   210.30667     -123.1645      -34452.915     -2251.1592     -20625.977      8.4094886    
      5800   185.37907     -123.25767      20691.328      32690.638      23061.136      8.5876478    
      5900   215.36148     -123.20044      16809         -7319.6001      3600.1432      8.4665597    
      6000   266.25757     -123.08056     -20190.562     -29629.888     -14800.844      8.3624392    
      6100   384.43917     -123.17363     -2143.2152      23392.959      784.64905      8.4754036    
      6200   348.57447     -123.12754     -3073.1496      12062.632      9989.1408      8.4724919    
      6300   257.7863      -122.86755      1678.887      -29074.077     -18571.582      8.3237517    
      6400   373.65378     -122.92179      27889.775      4825.0251      7843.2559      8.4838785    
      6500   389.06053     -122.8769      -18163.253      15520.225      9835.0307      8.4642694    
      6600   333.53917     -123.10478     -30103.804     -4461.9394     -11608.306      8.388442     
      6700   320.51371     -123.1961       35796.899     -10895.336     -2526.9401      8.4963148    
      6800   242.45394     -123.0475      -4368.2787     -5213.6176      1549.5925      8.4201508    
      6900   449.38767     -123.24516     -24654.098      2777.3802     -3221.4524      8.4221828    
      7000   339.0493      -123.04098      6073.8929      2833.4603     -2932.8475      8.4452791    
      7100   270.08306     -123.00549     -3342.215      -22032.158     -12621.634      8.3748993    
      7200   293.82576     -123.28689      1460.2606      14875.245      9422.4685      8.5106371    
      7300   204.37573     -123.18601      2763.0941      5744.8937      10701.072      8.4991727    
      7400   244.29944     -123.0628      -14023.093     -15798.261     -18052.804      8.3513679    
      7500   260.46604     -122.89243      24065.8        26074.277      14768.074      8.52938      
      7600   260.77891     -122.91501      12768.744      7437.5751      14762.889      8.4938587    
      7700   217.75034     -122.88605     -27513.328     -32235.392     -18484.695      8.2942938    
      7800   241.60386     -123.04787      26432.334      28785.714      10262.181      8.549855     
      7900   217.53291     -123.16065      10772.838      16406.441      5038.2729      8.5159474    
      8000   233.04631     -123.14936     -35688.116     -30520.405     -26216.631      8.3029139    
      8100   289.43474     -123.01409      24220.652      14237.587      31239.268      8.5798458    
      8200   340.92452     -122.92751     -12813.584      1121.7233     -7768.0705      8.3645684    
      8300   319.22765     -122.8673       9787.4408      974.04346     -14581.16       8.4063766    
      8400   294.3359      -122.96192      6187.3364     -512.75084      5307.9218      8.4619092    
      8500   320.75072     -123.07287     -19875.178     -23786.781     -6029.4579      8.3408071    
      8600   324.06437     -123.15744      22284.945      40449.978      30868.023      8.6325108    
      8700   216.29949     -123.01208     -23366.036     -31985.819     -39662.842      8.2691653    
      8800   354.02884     -122.93229      4665.6777      12153.359      6825.1967      8.4535508    
      8900   380.33735     -122.76157      37251.995      26804.969      44760.536      8.5957494    
      9000   327.48864     -122.74553     -65839.422     -59336.196     -60062.883      8.047753     
      9100   306.7177      -122.94816      72270.426      40156.109      32794.43       8.6908678    
      9200   295.72925     -123.12093     -19323.558     -1743.486       1457.8214      8.4018969    
      9300   358.37945     -123.17039     -55821.079     -24066.302     -29049.934      8.2898739    
      9400   250.87096     -122.93001      54728.885      27929.027      36614.622      8.6621763    
      9500   263.50667     -122.88555     -21313.222     -37173.664     -35870.432      8.2193976    
      9600   245.10266     -122.89485      15675.749      34096.622      29327.335      8.5669231    
      9700   307.90042     -123.00119      4674.8467      1363.9409      14029.097      8.5092172    
      9800   245.02947     -122.94204     -38793.001     -34661.193     -41597.919      8.1861137    
      9900   221.57004     -123.02013      65384.844      50881.105      53323.233      8.7416544    
     10000   236.01728     -123.16722     -31668.693     -27014.778     -23711.56       8.3079722    
     10100   302.59083     -123.08468     -15448.682     -1297.4092     -8124.6017      8.4106809    
     10200   434.26321     -123.07674      18230.975      8195.8403      10407.242      8.4731229    
     10300   303.16527     -122.8892      -12326.152     -8943.6725     -17501.047      8.328653     
     10400   306.3993      -123.0572       14044.752      8117.3801      14180.074      8.5258601    
     10500   201.59086     -123.03307     -17094.67      -7932.9749     -5341.4153      8.3825922    
     10600   239.78        -123.10128      21634.97       16113.561      9830.0062      8.5310264    
     10700   335.40245     -123.26122     -4526.7897     -11623.444     -10838.575      8.4039666    
     10800   290.14996     -123.08133     -29185.456     -10203.918     -4687.0237      8.3788315    
     10900   308.90491     -123.01506      18440.546      26026.494      12046.747      8.550981     
     11000   283.3702      -122.85532     -4745.9488     -23510.928     -18298.899      8.3142912    
     11100   435.15045     -123.07334      4101.0656      4352.613       18138.447      8.4848199    
     11200   369.61658     -123.12333     -12239.989     -3019.0062     -5271.1745      8.4256396    
     11300   250.10868     -123.12748     -10521.947     -15433.312     -29100.958      8.3232148    
     11400   289.81019     -123.19776      44054.483      26159.642      36001.274      8.6603117    
     11500   317.41034     -123.07334     -45602.325     -27581.613     -28679.84       8.2880995    
     11600   332.52255     -123.00816     -11661.903      1046.6143     -11311.257      8.3981899    
     11700   292.99803     -122.88287      56425.868      21624.946      33620.644      8.6306196    
     11800   234.36091     -122.84095     -35359.212     -22208.797     -29487.398      8.2517197    
     11900   337.72718     -123.01634     -1449.7827      11074.698      19934.289      8.5200844    
     12000   296.94147     -123.07095      2105.8571     -7306.8629      1990.8691      8.4225379    
     12100   222.13249     -123.12715      5529.2633     -2259.7489     -21578.033      8.4086259    
     12200   207.35741     -123.15239      13227.007      28607.364      18331.509      8.5702033    
     12300   327.5624      -123.1257      -28595.681     -3088.6614      3700.9829      8.4032369    
     12400   300.69085     -122.90737      20228.327     -17206.682      2172.5926      8.4502065    
     12500   381.87211     -123.00515      11856.531      4398.3172     -14016.438      8.4391582    
     12600   202.93894     -122.82952     -14769.91       5431.5734     -5180.4351      8.416686     
     12700   290.81355     -123.03053      14136.847      11095.253      30125.672      8.5369537    
     12800   272.57243     -123.12027      3637.2754     -14219.92      -938.92321      8.4268021    
     12900   205.57964     -123.14479     -11703.232     -2341.6807     -33189.199      8.3760099    
     13000   220.67741     -123.16384      10208.006      20718.582      15472.419      8.5274508    
     13100   308.78218     -123.04766     -10824.898     -8852.6919      17905.501      8.4583215    
     13200   239.98978     -122.8121      -8762.136      -19474.262     -14363.521      8.3451933    
     13300   322.68051     -122.90346      18232.902      29985.657      9248.7921      8.4840339    
     13400   242.52941     -122.90246     -866.70021      5221.3501      5962.7459      8.47306      
     13500   204.91696     -122.92735     -11066.212     -20020.738     -10644.302      8.3722027    
     13600   255.41506     -123.27188      26243.173      13875.904      10604.984      8.5472996    
     13700   258.22574     -123.37584     -10233.555     -7480.5508     -16332.338      8.4225623    
     13800   169.83526     -123.03828     -34798.088     -8135.0826      1021.2888      8.395611     
     13900   358.03164     -123.27109      36095.629      19066.531      17381.845      8.581703     
     14000   202.261       -122.88569     -8964.1425     -22919.586     -12131.812      8.3247809    
     14100   383.91945     -123.03739      10521.988      7141.4798     -8525.4263      8.4626646    
     14200   371.24268     -122.97109     -10566.189      7094.0024     -5671.551       8.4131397    
     14300   278.30695     -122.94033     -16488.609     -9407.0292      3823.5147      8.4087002    
     14400   268.94571     -123.22865      17656.088     -979.62807      4583.8433      8.4980004    
     14500   239.26028     -123.18196     -6044.2399      1901.8113      346.34836      8.449545     
     14600   306.32645     -123.15142     -11142.007      10237.842      3504.5213      8.476375     
     14700   241.51006     -122.91991      2077.1786     -6617.9014     -16623.899      8.3887313    
     14800   359.73613     -123.03045      6603.1456     -12416.071      10468.055      8.4465814    
     14900   257.31837     -122.87388      22.374939      14204.486     -6281.6744      8.4482833    
     15000   271.97086     -122.9763      -5737.2898     -3590.5328      12468.621      8.4494768    
     15100   228.66219     -122.91112     -7786.3097      4270.2295      580.46768      8.4340798    
     15200   427.7878      -123.24173      7827.9121     -1983.53       -9072.8129      8.4355023    
     15300   219.54833     -122.98797      203.93036     -5222.962       3560.2327      8.4377832    
     15400   244.44849     -123.14446     -11383.227     -9487.0067      8364.7747      8.4310663    
     15500   306.64888     -123.18599      23507.083      23603.548     -293.04867      8.5294482    
     15600   348.91152     -123.0816      -17300.008     -9892.7887     -36218.179      8.3463729    
     15700   431.59074     -123.04527     -26998.386     -41546.775     -2434.6326      8.3509501    
     15800   367.53927     -122.97485      11265.89       14792.161      39543.783      8.5484077    
     15900   337.13565     -123.08489     -2198.116      -15832.867     -38854.077      8.3576549    
     16000   245.02631     -123.05843     -8567.2115      3671.8773     -39656.965      8.4159668    
     16100   282.93516     -123.16733     -1378.2639      7918.6095      28900.493      8.5198388    
     16200   304.37781     -122.76201     -10462.439     -16729.31       27016.685      8.3893171    
     16300   342.68066     -122.78541      31919.028      15981.488     -4260.384       8.4767066    
     16400   313.67314     -122.88845     -7482.5565     -12551.988     -37824.731      8.3013543    
     16500   249.8515      -122.94851     -11133.405      14405.461      22555.96       8.5064107    
     16600   261.91095     -123.09391      12947.898      26737.323      34675.685      8.5908626    
     16700   296.1053      -123.07614     -10067.625     -43868.998     -30289.174      8.3057737    
     16800   398.38016     -122.86588      3269.154       6802.0579     -27564.771      8.3989299    
     16900   484.44743     -122.95259     -2775.0283      12909.893      30180.309      8.4812022    
     17000   377.76567     -123.09633     -24325.5       -22052.063      2732.9288      8.3857033    
     17100   270.33906     -123.05305      10648.329     -4086.006      -29526.831      8.396562     
     17200   298.34887     -123.1372       17470.496      22951.094      11627.866      8.5512119    
     17300   251.84574     -122.96182     -15366.854     -8424.206       2053.4001      8.3906902    
     17400   335.05879     -122.95957      2316.6615     -180.22493      5540.2425      8.4510655    
     17500   355.01336     -122.83515      13754.526      8248.0628      8555.9887      8.4596252    
     17600   290.52485     -122.87427     -12670.912      6139.4947     -1851.8199      8.4117047    
     17700   205.48688     -122.90943      1369.9899      5490.2959     -8278.913       8.4179195    
     17800   257.29452     -122.98664      29482.039      9507.9439      18926.527      8.5313852    
     17900   269.13969     -122.94341     -17321.36      -14827.696      3728.3912      8.4019449    
     18000   377.79359     -122.87654     -8126.7043     -2232.2966     -24956.314      8.3564814    
     18100   271.32166     -122.67804      32541.753      25701.623      14906.34       8.5089286    
     18200   280.49213     -123.07142     -6703.039      -2054.9395      311.70996      8.4242551    
     18300   196.36712     -123.05114     -20880.455     -21928.276      4496.7733      8.38136      
     18400   249.87725     -123.04198      37627.13       30098.698      14996.648      8.6078705    
     18500   281.9654      -122.89214     -14723.116     -10184.936     -24910.404      8.3008536    
     18600   375.14405     -122.98175      12180.918      17856.221      17397.916      8.5186593    
     18700   240.98617     -122.9288      -3355.7582     -18701.285      2075.6388      8.3877549    
     18800   334.80079     -123.30395     -10769.908     -3687.7967     -9082.3373      8.42984      
     18900   276.55895     -123.18785      12926.299      16160.469      2880.6286      8.5429465    
     19000   238.92401     -123.08704     -21341.057     -21635.773     -14855.447      8.3479036    
     19100   297.62986     -123.09237      16028.098      9149.0435      26388.346      8.5293114    
     19200   351.41417     -123.02697      2016.189      -4365.5309     -8709.2934      8.4042695    
     19300   287.99183     -122.82953     -7874.4404      3627.9865     -24723.33       8.4054679    
     19400   294.40507     -123.17895     -2444.2839      5028.1265      8599.2126      8.4665597    
     19500   287.9851      -123.29196     -684.55609     -16882.631      14173.66       8.4494352    
     19600   254.04484     -123.19026      6431.0318      5400.7007      3722.1076      8.4811159    
     19700   279.57105     -122.96744     -6920.6549      9687.0769     -26514.159      8.4051271    
     19800   345.87551     -123.0272      -14556.127     -10061.719      10324.682      8.4298128    
     19900   344.23452     -123.00233      2044.737      -13925.194      13783.99       8.4317679    
     20000   374.03591     -123.16115     -8199.9602     -11023.538     -17682.942      8.3809099    
     20100   309.38999     -123.251       -748.89862      9364.5802     -13458.649      8.4482073    
     20200   275.25506     -123.2892       20206.108      16048.445      11108.858      8.5563355    
     20300   229.61421     -123.04932     -35263.064     -22613.505      4692.1224      8.375594     
     20400   312.61407     -123.00692      14169.816      9285.8108      6439.663       8.4710792    
     20500   333.92911     -122.96261      18561.591      18148.671      5018.2365      8.5077263    
     20600   261.82376     -122.904       -18750.392     -13496.926     -37579.877      8.3131581    
     20700   310.07429     -123.04525      8277.949      -8061.6248      23695.837      8.482274     
     20800   225.11692     -123.07471      8366.5158      6486.8366      25000.51       8.5023622    
     20900   240.46227     -123.20581     -8767.3163     -1152.4904     -22168.038      8.4082326    
     21000   287.40757     -123.18964     -3118.4738      2712.6105     -17735.406      8.4552265    
     21100   333.50938     -122.96324     -10485.861     -5273.4962      13444.269      8.4037635    
     21200   384.03219     -123.00648      16419.868      2966.105       12506.172      8.4761574    
     21300   349.92853     -123.12381     -8236.9825     -10722.829     -19903.492      8.37921      
     21400   224.35917     -123.02943     -3579.0222      18132.717     -12750.48       8.4787239    
     21500   296.88649     -123.13966     -2504.0953     -2363.7761      20690.651      8.470788     
     21600   377.03009     -122.93269      10114.884     -15014.456     -3401.5403      8.370855     
     21700   351.41223     -122.76479      21771.739      25469.915      16530.326      8.5270791    
     21800   314.02538     -122.8818      -29034.271     -7909.3395     -25363.76       8.3129188    
     21900   324.86988     -123.2012       7858.882       8257.1346      13347.403      8.503024     
     22000   298.67369     -123.13066      17455.731     -9271.4399      18535.218      8.4749338    
     22100   272.89159     -123.03887     -27284.198     -21236.51      -24979.414      8.3189737    
     22200   309.42312     -122.89148      7810.9859      41163.868      16793.455      8.5931057    
     22300   428.54109     -122.83544     -5747.6214     -18425.827     -14344.836      8.3414867    
     22400   454.0418      -122.91151     -4275.3718     -30104.667     -9130.5922      8.3403498    
     22500   331.87258     -122.95503     -107.80766      16722.247      22997.207      8.4812901    
     22600   285.77312     -122.96365     -34.650125      23868.272     -10845.586      8.4393524    
     22700   227.10668     -123.05553      2182.0665     -12326.423     -4759.0731      8.4114831    
     22800   224.61702     -123.1065       12892.666      907.93918      23843.708      8.5235946    
     22900   314.57794     -123.18063     -17254.494     -8728.3708     -3518.4357      8.4195141    
     23000   295.47292     -122.8422      -2346.8088      9252.6653     -17540.175      8.4106879    
     23100   369.33391     -122.94672      39333.157      19517.43       5506.3674      8.5049815    
     23200   322.85146     -122.98815     -46271.639     -30249.344      191.34703      8.3205637    
     23300   304.9519      -123.13857      1123.1056      10968.797      11564.888      8.499272     
     23400   252.70647     -122.99772      34588.139      19611.93       2843.0686      8.5542607    
     23500   298.95816     -123.0488      -17939.087     -23603.102     -35717.142      8.2827       
     23600   311.62288     -123.02227      8117.1085      28449.746      37547.998      8.6055633    
     23700   342.00133     -123.09954     -35580.096     -29789.779     -13197.937      8.3268188    
     23800   271.55807     -122.93462      10672.213     -14932.984     -29682.608      8.3671515    
     23900   359.98455     -123.10717      22967.612      27441.379      25771.857      8.5646075    
     24000   232.77782     -122.94883     -26052.811     -4640.907      -920.40383      8.4017043    
     24100   343.87408     -123.22519      727.85428     -16253.469     -15816.866      8.4113067    
     24200   264.4589      -123.14345      27528.142      10951.723      12448.676      8.4832051    
     24300   225.83547     -122.98281     -10345.286      12477.469      15351.646      8.4888246    
     24400   325.68052     -122.92974     -35636.812     -19467.89      -24384.684      8.3119397    
     24500   374.10187     -123.00448      29237.427      2606.8623      26521.321      8.5198578    
     24600   279.38203     -123.04083      5717.6892      3855.0869     -2926.8803      8.4443897    
     24700   223.78032     -123.13619     -24038.311     -10369.626     -23428.71       8.3664374    
     24800   273.52572     -123.20805      14743.468      15193.316      15129.695      8.5387432    
     24900   294.01141     -123.16552     -8427.5791     -19528.047     -11373.303      8.3959848    
     25000   368.17611     -123.21167     -10205.761     -21880.767     -15338.019      8.4040296    
     25100   330.66548     -123.08168      42.8834        27191.188      3473.5633      8.5176472    
     25200   234.43452     -123.01626     -7815.0321     -15435.54       11096.887      8.4174601    
     25300   301.49906     -123.17694      13047.548      9252.8961     -8467.3486      8.4734589    
     25400   333.92358     -123.23416     -6869.7338     -6031.2898     -8796.5533      8.4268068    
     25500   292.66188     -123.20902     -6023.305      -22792.034     -12163.022      8.3990877    
     25600   286.91058     -123.16057      5816.3005      19398.834      6200.7324      8.5138195    
     25700   447.67268     -123.22041     -22484.83       18014.886      14130.536      8.5097166    
     25800   364.05005     -123.11795     -27844.941     -30044.843     -24618.378      8.3124124    
     25900   253.32346     -122.82227      39746.98      -21674.16      -7742.4741      8.4738835    
     26000   238.05624     -123.09737     -2156.2944      77.872217     -160.25918      8.4356729    
     26100   247.42183     -123.00449     -24931.122      36026.476      13064.4        8.5400581    
     26200   318.45216     -123.08604     -3369.1381     -3019.9709      14515.003      8.4573625    
     26300   345.87423     -122.86124      29276.562     -25617.474     -21044.153      8.4024324    
     26400   368.93283     -122.99468     -18871.081      2546.0791     -14903.608      8.3725568    
     26500   221.52847     -122.96574     -7488.7683      22629.454      32099.868      8.5376585    
     26600   242.74692     -123.19374      7286.5718      2513.3729     -1561.9163      8.4856823    
     26700   165.18476     -122.92685      6927.3166     -30527.716     -21928.219      8.3458321    
     26800   370.39383     -123.13091      2667.3072      29252.113      18915.327      8.5475392    
     26900   323.61057     -122.98167     -25915.548      9494.9015     -4355.8112      8.4398838    
     27000   385.20452     -123.146        1021.5928     -23560.036     -11468.66       8.3964695    
     27100   242.84909     -123.05415      18544.052     -1878.0126     -404.88686      8.4543735    
     27200   203.73895     -123.14048     -11780.252      4861.1579      10782.966      8.4655726    
     27300   263.39714     -123.37599     -6681.9883      7860.9045     -12010.393      8.4766014    
     27400   205.28188     -123.35123      1112.6279     -1339.1746     -5222.9716      8.4859802    
     27500   265.09444     -123.22777     -4384.3046     -18537.59       3335.4159      8.4181151    
     27600   310.50724     -123.13534      3999.6018      8691.4458      7931.5292      8.4920638    
     27700   278.15646     -122.92194     -12478.658      3410.1154     -15545.485      8.4020335    
     27800   274.82601     -122.93705     -102.66952      1177.7473     -293.91053      8.4446638    
     27900   301.35415     -123.0591       14507.188      2264.1766      15275.441      8.4984837    
     28000   205.43014     -123.07221     -18660.51      -6795.5547     -9583.1275      8.3921251    
     28100   267.20965     -123.20945      10692.068      12302.951      4350.6775      8.5126633    
     28200   300.9131      -122.98571      5565.4903     -12101.413     -74.941617      8.4514302    
     28300   247.38915     -122.79433     -23324.173     -13164.349     -23547.75       8.3101994    
     28400   397.4268      -123.11563      39848.688      51925.87       38067.369      8.6499464    
     28500   301.70019     -123.15624     -15935.532     -20958.493     -6763.6563      8.3458326    
     28600   250.11017     -123.06189     -20993.576     -30684.41      -21086.04       8.3531615    
     28700   324.18714     -123.10717      26057.112      28193.438      14758.737      8.5527604    
     28800   396.85466     -122.92848     -8597.4865      10535.393      502.18397      8.421511     
     28900   343.503       -122.75574     -10788.713     -9263.9719     -13173.342      8.3395451    
     29000   318.30774     -122.93065      23105.34      -6380.5336      13115.579      8.4741407    
     29100   275.78393     -123.03163     -11314.25      -4721.4465     -16622.059      8.3909675    
     29200   324.12852     -123.11072     -7132.2044      12729.495     -625.62294      8.4799473    
     29300   305.80285     -123.03961      8775.7771      1011.4272      10839.338      8.4713766    
     29400   240.12967     -122.9661      -5322.8026     -21461.693     -491.7699       8.3902859    
     29500   332.12066     -123.18799      30.070531      14452.41      -5121.6932      8.4926793    
     29600   254.29272     -123.18635     -19294.204      5790.5304     -14425.749      8.4038945    
     29700   267.2347      -123.2588       15125.857      6279.5045      13208.659      8.5157247    
     29800   310.43354     -123.08855      18335.639     -4924.4694      21744.008      8.5113847    
     29900   315.19696     -122.92253     -29952.654     -41451.684     -31106.473      8.2369854    
     30000   333.20679     -123.02416      24752.161      44192.449      6962.0527      8.5720288    
     30100   316.11314     -123.07844     -7022.9454      19412.77       14313.195      8.4924769    
     30200   301.83439     -123.16873     -32874.796     -45564.39      -17142.549      8.2938453    
     30300   212.69155     -123.15765      33567.792      1400.4317      10155.99       8.5368214    
     30400   217.54239     -123.22987      79.762029      11523.295     -690.40807      8.5033223    
     30500   263.36048     -123.03985     -27320.755      140.01414     -11451.029      8.3923614    
     30600   312.7388      -122.96816      15708.441      306.59185      6872.1551      8.4559255    
     30700   358.21734     -122.98032      25877.388     -11655.319      8756.699       8.4296572    
     30800   296.09206     -123.00078     -15862.052     -3100.7719      1484.7179      8.4198698    
     30900   262.09318     -123.01869     -15272.046      4234.682      -18412.02       8.4184492    
     31000   191.87078     -123.10411      21456.948      6632.2331      16942.709      8.4888026    
     31100   273.3158      -123.20885      23756.377      2812.3773      3537.8564      8.5082045    
     31200   297.28533     -122.94948     -38554.38      -16986.416      2282.9724      8.3552526    
     31300   383.11912     -123.08031     -1742.1814      14667.702     -5618.7135      8.4541605    
     31400   307.56492     -122.9952       24967.473      7787.5579     -223.90333      8.4762507    
     31500   346.33148     -123.10693     -15952.802     -17348.45      -10394.636      8.3883899    
     31600   309.85093     -123.12964     -20396.039     -25241.875      2975.2307      8.3792071    
     31700   311.72599     -123.22466      13446.687      16374.636      4360.1998      8.5415182    
     31800   265.69732     -123.09488     -14365.085      6570.6531     -19503.02       8.3979104    
     31900   396.30168     -123.11611      16058.454     -13568.313      11422.785      8.4610419    
     32000   191.1599      -122.64279     -1308.1751      825.48179      1419.5201      8.4123504    
     32100   321.27351     -122.93111     -19509.203     -894.89724     -6499.9878      8.400328     
     32200   229.58531     -123.14556      10493.184      8785.1953      5842.363       8.4924142    
     32300   230.28983     -123.17191      20770.727      13263.073      9386.3868      8.526594     
     32400   298.96904     -123.07857     -23735.49      -35684.455     -17962.783      8.3295799    
     32500   345.6628      -123.06314      1474.9998      6622.659       3615.3229      8.4672033    
     32600   459.99074     -123.18133      14600.089      25457.86       16693.447      8.5597787    
     32700   290.45414     -122.9582      -35073.605     -34858.701     -39615.36       8.2399234    
     32800   276.55599     -123.1144       35662.344      13641.858      30645.074      8.6087407    
     32900   229.93889     -123.29434     -9756.665       4072.587       12841.357      8.487681     
     33000   242.4949      -123.21502     -23703.95      -15427.215     -31316.165      8.3540698    
     33100   222.33902     -123.01168      25783.246      21945.938      13478.366      8.5576987    
     33200   279.40724     -122.98101      1849.9906     -15887.506      1121.5714      8.4031514    
     33300   279.99934     -122.9559      -7339.1        -3179.4802      20.48093       8.4264531    
     33400   236.50652     -122.87398      20298.508      26415.525      3736.1941      8.5217224    
     33500   250.98232     -123.08268     -15642.842     -14058.245     -16897.468      8.3393508    
     33600   178.11417     -123.06004      21513.224      4962.8198      36091.281      8.5435553    
     33700   263.40148     -123.18813      7726.9839      10547.253      15515.944      8.5202741    
     33800   256.59148     -122.8712      -44505.86      -12835.577     -32936.572      8.2741428    
     33900   407.252       -122.90551      31924.677      25817.176     -10824.163      8.5032428    
     34000   322.72663     -122.9304       3759.9146     -19141.318      7346.9852      8.3996193    
     34100   316.58078     -122.99215     -22243.935     -19465.152      15485.593      8.4146949    
     34200   316.34959     -123.10645      8048.9838      12371.156     -7694.6311      8.4663075    
     34300   246.72837     -123.0675       22944.14       18913.836     -18437.002      8.4935251    
     34400   205.90762     -123.26282     -21536.209     -22555.936     -320.51817      8.4168099    
     34500   179.24047     -123.1737      -16610.654     -1228.4971      13966.756      8.4615331    
     34600   199.09266     -122.91027      35995.901      37899.846      23860.121      8.6048068    
     34700   266.03068     -122.85681     -4986.495      -16202.284     -36387.074      8.31419      
     34800   359.55388     -122.98423      15065.936      4744.7875      18607.739      8.4988598    
     34900   301.72415     -122.99763     -5627.6675      5087.1856     -1067.3581      8.4401807    
     35000   292.88314     -123.23843     -23671.786     -24299.039     -33.109125      8.3937126    
     35100   266.5223      -123.23054      24680.347      27589.78       18496.622      8.5721822    
     35200   257.21375     -123.10456      350.16471     -777.81451     -11690.433      8.4268055    
     35300   281.94566     -122.99884     -14904.535     -21057.567     -19698.225      8.3750528    
     35400   387.89111     -123.18565     -5747.0388     -146.68569      1066.2722      8.4545526    
     35500   282.45136     -123.01121      8801.0288      2598.6444      9525.1242      8.4504482    
     35600   335.30108     -123.14093      429.52145      5709.2958     -1897.5941      8.4800581    
     35700   183.89633     -123.05291     -24926.853     -15970.447      2175.4999      8.3649932    
     35800   300.23869     -123.36754      30538.757      25167.593      19649.301      8.6161598    
     35900   204.79586     -123.05734     -8920.2515     -15734.764     -26187.306      8.3541549    
     36000   295.73193     -123.0311      -10067.337     -1458.6748      3774.5837      8.4346658    
     36100   337.15449     -123.02414      24423.446      24908.71       35394.235      8.5701998    
     36200   339.73782     -123.07196     -26433.672     -33614.324     -34365.527      8.2802973    
     36300   347.15567     -123.22649      6240.0121      8580.5388     -6261.0308      8.5038862    
     36400   289.3588      -123.28275      14158.381      23250.347      14787.519      8.5637952    
     36500   245.92073     -123.18938     -28223.944     -39788.583     -2213.4618      8.3457827    
     36600   362.88091     -123.17047      24935.803      12613.882      9124.802       8.5609696    
     36700   302.95163     -122.86668     -12658.25       10678.567     -24421.327      8.3737408    
     36800   359.56924     -123.131        3137.1569      3939.0597      5338.4226      8.4806281    
     36900   242.55863     -123.05114     -7498.5897     -17806.856      5244.4422      8.4336212    
     37000   269.07096     -123.1473      -10822.66      -9675.3874     -11487.638      8.3935174    
     37100   294.89752     -122.9383       31511.31       46839.596      20342.055      8.6018369    
     37200   326.81095     -122.67232     -28511.641     -35439.154     -29279.613      8.2213073    
     37300   424.97418     -123.02602      9855.9072     -2334.0748      9671.0165      8.4482203    
     37400   356.00042     -123.06814      14968.991      19893.108      18090.221      8.5349473    
     37500   192.94904     -122.87836     -34935.365     -25755.256     -37422.144      8.2549748    
     37600   236.35465     -122.9881       38617.212      31398.775      46187.6        8.6485118    
     37700   227.87909     -122.91443      2020.8797     -2715.2025     -2216.4708      8.3846558    
     37800   372.95019     -122.89385     -9436.837      -2639.1241     -6707.7106      8.4040222    
     37900   384.34661     -122.78581      9484.5524      17934.413     -619.042        8.4843755    
     38000   282.92304     -122.9119      -14873.493     -23384.657     -15963.639      8.3548591    
     38100   306.18675     -123.07649      16922.761     -2039.1987      15442.505      8.4983058    
     38200   348.78067     -123.18871     -3446.498       7736.0591      3147.408       8.4745418    
     38300   378.94804     -123.20497     -23980.692     -11661.827     -31978.074      8.3467292    
     38400   304.5861      -123.08077      23817.838      15127.352      17867.191      8.5369491    
     38500   314.07986     -123.02853      4110.3251     -458.68046      23676.803      8.4861013    
     38600   191.22895     -122.78455     -14465.85      -24808.375     -29466.695      8.3039617    
     38700   315.81578     -122.93663      26664.972      43277.256      7000.124       8.5607476    
     38800   320.24275     -122.91599     -2597.9822     -12261.028      3585.5308      8.3864969    
     38900   232.1502      -122.85951     -11796.302     -13476.855      14386.084      8.4336781    
     39000   231.27521     -123.14467      10313.152      12042.044      7297.8155      8.5460077    
     39100   285.56091     -123.18301     -25651.646     -6337.5726     -49321.736      8.3264336    
     39200   284.87926     -123.02652      20339.147     -1620.7033      25725.142      8.5282172    
     39300   340.64686     -123.06296      1350.1887      150.51568      15675.469      8.4307242    
     39400   303.54582     -123.00757     -20391.759      2816.8766     -15641.306      8.4200791    
     39500   316.96472     -123.15751      4225.5099      6711.5352     -11317.55       8.4579158    
     39600   263.52427     -123.18772      8319.5062      2918.1401      11850.082      8.4689991    
     39700   183.14607     -123.04983      741.41924     -23259.92       3647.7461      8.4230716    
     39800   288.08124     -123.00488     -6642.5869     -5326.8956     -6421.3279      8.4164865    
     39900   383.50336     -122.92093     -9723.236       30637.172     -17295.149      8.4413788    
     40000   296.07128     -122.87615      14732.359     -4442.122       452.28817      8.4239059    
     40100   357.47002     -123.12363      684.25535     -30042.529      11497.136      8.4310672    
     40200   298.7877      -123.24973     -20606.991     -2171.067       2922.7588      8.4584364    
     40300   238.86761     -123.12573     -2349.9342      30703.914     -1613.4989      8.497315     
     40400   250.67016     -123.06366      21237.911     -6889.6807     -3218.7728      8.4542759    
     40500   248.81614     -123.00796      7112.6824     -15911.579      4679.7463      8.4417255    
     40600   370.95567     -123.11013     -26353.769     -22346.231     -8578.6775      8.3736117    
     40700   251.0743      -122.88359      3132.5433      26911.782      772.91082      8.4812204    
     40800   378.49458     -123.19251      34082.907      22154.349      12324.631      8.5625915    
     40900   305.87395     -123.21537     -46399.465     -45067.812     -26651.808      8.2833293    
     41000   203.86878     -123.207       -2837.2837      6783.5988      11584.522      8.5063282    
     41100   273.51189     -123.13681      39037.826      23312.148      24005.561      8.5943815    
     41200   348.57627     -123.02408     -27554.131     -36539.322     -40701.726      8.2378719    
     41300   365.29674     -123.02564      1251.5032      11674.71       3585.2975      8.4889751    
     41400   296.11816     -123.00246     -12307.436      1274.4011      8149.6515      8.4244478    
     41500   268.27885     -123.19462      7621.5633     -4911.6567      84.984637      8.4372721    
     41600   185.8065      -123.14049      17609.02       21609.987      6891.5639      8.5435198    
     41700   290.45192     -123.22131     -22452.552     -19436.83      -31970.587      8.3303317    
     41800   195.17047     -122.95896      9457.5145      7100.0363      41057.393      8.5216871    
     41900   350.12767     -123.14098      25558.595      16032.018      16943.752      8.5419629    
     42000   337.3606      -122.90346     -33549.149     -26406.122     -44919.622      8.224962     
     42100   373.0278      -122.978        30043.291      45078.098      19690.858      8.6029265    
     42200   202.29595     -122.82673     -19880.417     -28016.702      22610.224      8.3703877    
     42300   241.46674     -123.19357      3949.0277     -6760.251      -8316.5646      8.4387094    
     42400   222.5585      -123.09692      15872.692      29201.877      32.094074      8.5170089    
     42500   272.91751     -123.09209     -8246.0511     -10228.158     -20563.424      8.374746     
     42600   222.43321     -122.91381     -5495.5889     -8765.4797      26425.446      8.4717615    
     42700   361.21633     -123.09653      5590.5666      13079.19       10312.716      8.4950057    
     42800   259.25992     -122.86625     -11075.667     -1584.0527     -34301.31       8.3395996    
     42900   425.12104     -122.87837      13499.613     -4578.9387     -6927.2263      8.4243036    
     43000   347.81681     -122.71611     -11228.544     -11162.183      20786.549      8.4059928    
     43100   364.08764     -123.15455      1418.3459      2550.4285      8016.2302      8.4770885    
     43200   289.87828     -123.03744      11029.221      17145.843     -19668.555      8.4597233    
     43300   234.72272     -122.98219      1367.3193      1497.8197     -10480.794      8.4023353    
     43400   287.27946     -122.98283     -6107.5661     -8063.8516      29693.063      8.4539639    
     43500   360.00614     -123.18949      2089.7799      11995.144      516.13403      8.4651443    
     43600   377.2565      -123.18709      7873.799      -5071.3448     -26731.587      8.4192177    
     43700   216.04744     -122.95356     -12980.931     -6856.0118      3265.6548      8.4134095    
     43800   237.96299     -122.98111      15020.426      13520.879      27537.399      8.5550812    
     43900   318.26303     -123.14066     -15352.576     -14280.466     -16235.243      8.3614581    
     44000   266.25745     -123.00436      3285.5181      1726.0838     -10396.752      8.4330419    
     44100   407.35774     -123.109        9725.4709      9040.5982      15201.437      8.4717585    
     44200   273.62269     -122.89095     -7411.1572      19280.356      7058.3789      8.4612772    
     44300   285.44053     -123.14793     -4931.1222     -33276.982     -8445.0593      8.3871621    
     44400   284.28348     -123.28681     -7279.5012     -7850.4818     -22769.097      8.3948819    
     44500   326.22895     -123.22863      23438.296      32190.831      15241.756      8.5717954    
     44600   325.38543     -123.07985     -34455.259     -18614.076      6536.9708      8.380425     
     44700   347.3336      -123.13615     -5139.334      -10593.494     -14469.519      8.3781819    
     44800   308.93697     -122.95853      39156.989      15493.352      3984.8711      8.5151932    
     44900   360.35187     -123.02746     -32235.005     -17731.286     -3745.7918      8.3706714    
     45000   310.49153     -123.13321     -19533.192      8443.8627     -2452.6929      8.4526296    
     45100   216.60665     -123.15883      33901.135      13015.43       8873.6933      8.5484718    
     45200   272.06023     -123.16373      2860.9323     -24886.672     -14692.097      8.3753372    
     45300   292.53272     -123.05864     -15857.664      4071.4689     -2820.8575      8.4242824    
     45400   358.51059     -123.16972      748.44792      23721.192      17326.302      8.5578018    
     45500   198.01882     -122.99199     -13687.955     -23037.943     -31913.209      8.3280629    
     45600   315.80395     -123.17236      17965.555     -6049.4783      10414.258      8.5029012    
     45700   347.02668     -122.97142     -1280.1156      5666.9053      27184.452      8.4917008    
     45800   303.17751     -122.72924     -21764.206      7101.8842     -22229.882      8.3568641    
     45900   232.07122     -122.7365       31643.156      19609.762      20613.928      8.5255054    
     46000   314.22553     -122.97206      619.01436     -21281.41      -17025.018      8.3751789    
     46100   296.73787     -123.05839     -21618.531     -10734.558     -13192.988      8.3482109    
     46200   301.71089     -122.98685      47446.301      30927.519      51198.099      8.66339      
     46300   250.0842      -123.03383     -40472.751     -18286.895     -35559.232      8.2769423    
     46400   181.67939     -123.18387     -47.287602     -4735.2653      5709.8972      8.4786089    
     46500   243.73612     -123.24893      27432.443      28836.965      21066.208      8.5899612    
     46600   262.92201     -123.0904      -24295.63      -19450.611     -16308.874      8.351518     
     46700   276.70975     -123.0314       7224.641       4525.923      -8299.3411      8.463187     
     46800   402.99044     -123.18953     -506.06529     -4978.636       6065.0952      8.4411915    
     46900   267.02909     -122.97304     -17735.746      2582.5652      6465.6498      8.4345885    
     47000   395.13272     -123.31623      8772.5431      4103.8882     -8020.4352      8.496316     
     47100   142.90721     -122.95852     -14045.223     -22317.205     -23322.627      8.3271       
     47200   234.86109     -123.05482      34197.665      22869.29       28561.002      8.5989357    
     47300   293.6826      -122.92031     -17787.842      131.48858     -593.95697      8.4011484    
     47400   429.44618     -123.07555     -21414.139     -27246.474     -8858.1846      8.3297804    
     47500   357.28768     -123.02056      26807.74       23060.307     -341.71766      8.5173379    
     47600   262.73306     -123.00547     -9488.0979     -8866.8832     -21733.407      8.3386946    
     47700   312.44146     -123.0879       381.83679      13411.239      47283.558      8.5982551    
     47800   315.71226     -123.1733      -12832.591     -3542.0025     -10121.915      8.3972743    
     47900   313.61337     -122.97433      25307.312     -11025.078     -36490.25       8.3825599    
     48000   164.44507     -122.74174      3441.5585      15539.551      31353.356      8.5320877    
     48100   342.42147     -122.93967     -43044.656     -18536.254     -5618.979       8.3061461    
     48200   294.00656     -123.08812      29841.496      22000.851      20813.594      8.5731159    
     48300   253.71385     -123.04187      18229.434     -8825.5781     -36159.894      8.3992565    
     48400   197.93572     -122.94141     -30820.859     -10433.157      7554.2698      8.3973082    
     48500   335.6289      -122.84807      22017.021      42979.232      63820.76       8.6587101    
     48600   239.30379     -122.65968     -7440.0463     -29650.32      -42708.292      8.2105813    
     48700   303.04661     -122.96351      32237.823      14629.518     -5034.2601      8.4982742    
     48800   280.97607     -123.20007     -20256.678      9795.0226      27515.751      8.520761     
     48900   260.01238     -123.28169     -31335.887     -22280.852     -10881.569      8.3507441    
     49000   266.78978     -123.10153      48284.242      7392.2758     -7423.9894      8.5381261    
     49100   315.80486     -123.16706     -26130.936     -21918.888     -4361.7659      8.3523682    
     49200   306.89881     -122.99626     -4317.2504      34799.467      5102.7652      8.5193657    
     49300   263.49143     -122.90271      2698.5716      3733.6334     -455.27983      8.4307668    
     49400   308.84042     -122.83934     -5492.8763     -32803.564     -11651.458      8.2935948    
     49500   309.40997     -123.00593      22747.076      20968.837      18708.751      8.5508358    
     49600   278.83435     -123.16709     -19449.506     -11690.996     -9477.8565      8.3579452    
     49700   180.78552     -123.06791      11536.943      19660.936      6092.977       8.5110348    
     49800   293.98183     -123.15562     -1017.187      -2544.2618      2884.8517      8.4049839    
     49900   386.20787     -123.07988      7393.5657     -3910.2797      6448.7446      8.4626506    
     50000   270.89557     -122.85359     -16363.444      12162.49      -12244.715      8.4040244    
Loop time of 133.893 on 1 procs for 50000 steps with 16 atoms

Performance: 32.265 ns/day, 0.744 hours/ns, 373.432 timesteps/s, 5.975 katom-step/s
100.0% CPU use with 1 MPI tasks x 1 OpenMP threads

MPI task timing breakdown:
Section |  min time  |  avg time  |  max time  |%varavg| %total
---------------------------------------------------------------
Pair    | 133.29     | 133.29     | 133.29     |   0.0 | 99.55
Neigh   | 0.016297   | 0.016297   | 0.016297   |   0.0 |  0.01
Comm    | 0.048975   | 0.048975   | 0.048975   |   0.0 |  0.04
Output  | 0.14342    | 0.14342    | 0.14342    |   0.0 |  0.11
Modify  | 0.38726    | 0.38726    | 0.38726    |   0.0 |  0.29
Other   |            | 0.01219    |            |       |  0.01

Nlocal:             16 ave          16 max          16 min
Histogram: 1 0 0 0 0 0 0 0 0 0
Nghost:            325 ave         325 max         325 min
Histogram: 1 0 0 0 0 0 0 0 0 0
Neighs:              0 ave           0 max           0 min
Histogram: 1 0 0 0 0 0 0 0 0 0
FullNghs:          524 ave         524 max         524 min
Histogram: 1 0 0 0 0 0 0 0 0 0

Total # of neighbors = 524
Ave neighs/atom = 32.75
Neighbor list builds = 437
Dangerous builds = 0
unfix __pylammps_internal_run_callback
undump 1
unfix 1
variable newlx equal f_avg[1]
variable newly equal f_avg[2]
variable newlz equal f_avg[3]
change_box all x final 0 ${newlx} y final 0 ${newly} z final 0 ${newlz} remap units box
change_box all x final 0 6.35187434162966 y final 0 ${newly} z final 0 ${newlz} remap units box
change_box all x final 0 6.35187434162966 y final 0 6.09054354738993 z final 0 ${newlz} remap units box
change_box all x final 0 6.35187434162966 y final 0 6.09054354738993 z final 0 6.11139352717851 remap units box
Changing box ...
  orthogonal box = (0 0.12693131 0.030610119) to (6.3518743 6.1290687 6.2253899)
  orthogonal box = (0 0 0.030610119) to (6.3518743 6.0905435 6.2253899)
  orthogonal box = (0 0 0) to (6.3518743 6.0905435 6.1113935)
unfix avg
dump 1 all custom 100 min_dump.cfg id type x y z v_sa_hydro v_sa_von
minimize 0.0 0.02 5000 10000
Switching to 'neigh_modify every 1 delay 0 check yes' setting during minimization
Per MPI rank memory allocation (min/avg/max) = 6.425 | 6.425 | 6.425 Mbytes
   Step          Temp          PotEng          Pxx            Pyy            Pzz          Density    
     50000   270.89557     -122.89128     -6063.2706      6052.4841      4855.8777      8.4379799    
     50013   270.89557     -123.64582     -1926.6274     -23464.783     -14657.585      8.4379799    
Loop time of 0.112523 on 1 procs for 13 steps with 16 atoms

100.0% CPU use with 1 MPI tasks x 1 OpenMP threads

Minimization stats:
  Stopping criterion = force tolerance
  Energy initial, next-to-last, final = 
     -122.891278296325  -123.645706343199  -123.645823863597
  Force two-norm initial, final = 3.2799023 0.019594932
  Force max component initial, final = 1.1352536 0.0068584372
  Final line search alpha, max atom move = 1 0.0068584372
  Iterations, force evaluations = 13 25

MPI task timing breakdown:
Section |  min time  |  avg time  |  max time  |%varavg| %total
---------------------------------------------------------------
Pair    | 0.10984    | 0.10984    | 0.10984    |   0.0 | 97.62
Neigh   | 0          | 0          | 0          |   0.0 |  0.00
Comm    | 2.5182e-05 | 2.5182e-05 | 2.5182e-05 |   0.0 |  0.02
Output  | 0          | 0          | 0          |   0.0 |  0.00
Modify  | 0          | 0          | 0          |   0.0 |  0.00
Other   |            | 0.002655   |            |       |  2.36

Nlocal:             16 ave          16 max          16 min
Histogram: 1 0 0 0 0 0 0 0 0 0
Nghost:            325 ave         325 max         325 min
Histogram: 1 0 0 0 0 0 0 0 0 0
Neighs:              0 ave           0 max           0 min
Histogram: 1 0 0 0 0 0 0 0 0 0
FullNghs:          540 ave         540 max         540 min
Histogram: 1 0 0 0 0 0 0 0 0 0

Total # of neighbors = 540
Ave neighs/atom = 33.75
Neighbor list builds = 0
Dangerous builds = 0
undump 1
