units metal
atom_style atomic
read_data HEA_II.lmp
Reading data file ...
  orthogonal box = (0 0 0) to (6.256 6.256 6.256)
  1 by 1 by 1 MPI processor grid
  reading atoms ...
  16 atoms
  read_data CPU = 0.000 seconds
mass 1 58.693
mass 2 58.933
mass 3 47.867
mass 4 91.224
mass 5 178.49
pair_style snap 
pair_coeff * * HEA_var1.snapcoeff HEA_var1.snapparam Ni Co Ti Zr Hf
SNAP Element = Ni, Radius 1.805, Weight 0.43
SNAP Element = Co, Radius 1.81, Weight 0.48
SNAP Element = Ti, Radius 2.094, Weight 0.36
SNAP Element = Zr, Radius 2.28, Weight 0.35
SNAP Element = Hf, Radius 2.313, Weight 0.33
SNAP keyword rcutfac 1.0
SNAP keyword twojmax 8
SNAP keyword rfac0 0.99363
SNAP keyword rmin0 0.0
SNAP keyword bzeroflag 0
SNAP keyword wselfallflag 0
SNAP keyword chemflag 0
SNAP keyword bnormflag 0
SNAP keyword switchinnerflag 0
SNAP keyword quadraticflag 0
thermo 100
thermo_style custom step temp pe vol density pxx pyy pzz
dump 1 all custom 100 min_dump.cfg id type x y z
min_style cg
fix 1 all box/relax aniso 0.0
minimize 0.0 0.02 5000 10000
Neighbor list info ...
  update: every = 1 steps, delay = 0 steps, check = yes
  max neighbors/atom: 2000, page size: 100000
  master list distance cutoff = 6.626
  ghost atom cutoff = 6.626
  binsize = 3.313, bins = 2 2 2
  1 neighbor lists, perpetual/occasional/extra = 1 0 0
  (1) pair snap, perpetual
      attributes: full, newton on
      pair build: full/bin/atomonly
      stencil: full/bin/3d
      bin: standard
WARNING: Energy due to 3 extra global DOFs will be included in minimizer energies
 (src/min.cpp:219)
Per MPI rank memory allocation (min/avg/max) = 4.573 | 4.573 | 4.573 Mbytes
   Step          Temp          PotEng         Volume        Density          Pxx            Pyy            Pzz      
         0   0             -123.22298      244.84443      8.1479146     -62974.256     -79089.506     -79089.506    
       100   0             -123.45429      238.25048      8.3734204     -24133.478     -40514.196     -40514.196    
       200   0             -123.52644      233.2553       8.5527378      6296.4911     -5261.2607     -5261.2607    
       300   0             -123.5435       232.9337       8.5645462      745.41392     -381.17623     -381.17623    
       322   0             -123.55226      232.91688      8.5651646      23.288165     -6.9782511     -6.9782511    
Loop time of 1.50076 on 1 procs for 322 steps with 16 atoms

201.0% CPU use with 1 MPI tasks x 1 OpenMP threads

Minimization stats:
  Stopping criterion = force tolerance
  Energy initial, next-to-last, final = 
     -123.222978407214  -123.552255043276  -123.552259331151
  Force two-norm initial, final = 19.625945 0.010526948
  Force max component initial, final = 12.086449 0.0033737479
  Final line search alpha, max atom move = 0.0021285469 7.1811805e-06
  Iterations, force evaluations = 322 324

MPI task timing breakdown:
Section |  min time  |  avg time  |  max time  |%varavg| %total
---------------------------------------------------------------
Pair    | 1.4978     | 1.4978     | 1.4978     |   0.0 | 99.81
Neigh   | 0          | 0          | 0          |   0.0 |  0.00
Comm    | 0.00056812 | 0.00056812 | 0.00056812 |   0.0 |  0.04
Output  | 0.00013505 | 0.00013505 | 0.00013505 |   0.0 |  0.01
Modify  | 0          | 0          | 0          |   0.0 |  0.00
Other   |            | 0.002213   |            |       |  0.15

Nlocal:             16 ave          16 max          16 min
Histogram: 1 0 0 0 0 0 0 0 0 0
Nghost:            543 ave         543 max         543 min
Histogram: 1 0 0 0 0 0 0 0 0 0
Neighs:              0 ave           0 max           0 min
Histogram: 1 0 0 0 0 0 0 0 0 0
FullNghs:          952 ave         952 max         952 min
Histogram: 1 0 0 0 0 0 0 0 0 0

Total # of neighbors = 952
Ave neighs/atom = 59.5
Neighbor list builds = 0
Dangerous builds = 0
unfix 1
minimize 0.0 0.02 5000 10000
Per MPI rank memory allocation (min/avg/max) = 5.824 | 5.824 | 5.824 Mbytes
   Step          Temp          PotEng         Volume        Density          Pxx            Pyy            Pzz      
       322   0             -123.55226      232.91688      8.5651646      23.288165     -6.9782511     -6.9782511    
       323   0             -123.55227      232.91688      8.5651646      14.374291     -7.5416092     -7.5416092    
Loop time of 0.0139928 on 1 procs for 1 steps with 16 atoms

100.0% CPU use with 1 MPI tasks x 1 OpenMP threads

Minimization stats:
  Stopping criterion = force tolerance
  Energy initial, next-to-last, final = 
     -123.552259331151  -123.552259331151  -123.552268324558
  Force two-norm initial, final = 0.0098622122 0.0078992003
  Force max component initial, final = 0.0025131544 0.0029827463
  Final line search alpha, max atom move = 1 0.0029827463
  Iterations, force evaluations = 1 2

MPI task timing breakdown:
Section |  min time  |  avg time  |  max time  |%varavg| %total
---------------------------------------------------------------
Pair    | 0.013948   | 0.013948   | 0.013948   |   0.0 | 99.68
Neigh   | 0          | 0          | 0          |   0.0 |  0.00
Comm    | 5.783e-06  | 5.783e-06  | 5.783e-06  |   0.0 |  0.04
Output  | 0          | 0          | 0          |   0.0 |  0.00
Modify  | 0          | 0          | 0          |   0.0 |  0.00
Other   |            | 3.855e-05  |            |       |  0.28

Nlocal:             16 ave          16 max          16 min
Histogram: 1 0 0 0 0 0 0 0 0 0
Nghost:            543 ave         543 max         543 min
Histogram: 1 0 0 0 0 0 0 0 0 0
Neighs:              0 ave           0 max           0 min
Histogram: 1 0 0 0 0 0 0 0 0 0
FullNghs:          968 ave         968 max         968 min
Histogram: 1 0 0 0 0 0 0 0 0 0

Total # of neighbors = 968
Ave neighs/atom = 60.5
Neighbor list builds = 0
Dangerous builds = 0
undump 1
variable lenx equal lx
variable leny equal ly
variable lenz equal lz
compute sta all stress/atom NULL
compute vol_atom all voronoi/atom
variable	va atom c_vol_atom[1]
variable	sa_xx atom 1E-4*c_sta[1]/v_va
variable	sa_yy atom 1E-4*c_sta[2]/v_va
variable	sa_zz atom 1E-4*c_sta[3]/v_va
variable	sa_xy atom 1E-4*c_sta[4]/v_va
variable	sa_xz atom 1E-4*c_sta[5]/v_va
variable	sa_yz atom 1E-4*c_sta[6]/v_va
variable	sa_hydro atom (v_sa_xx+v_sa_yy+v_sa_zz)/3.0
variable	sa_von atom sqrt(0.5*((v_sa_xx-v_sa_yy)^2+(v_sa_yy-v_sa_zz)^2+(v_sa_zz-v_sa_xx)^2)+3.0*((v_sa_xy)^2+(v_sa_xz)^2+(v_sa_yz)^2))
thermo 100
thermo_style custom step temp pe vol density pxx pyy pzz
timestep 0.001
neighbor	1.0 bin
neigh_modify	every 5 delay 0 check yes
reset_timestep 0
velocity all create 300.0 12345678
dump 1 all custom 1000 md_npt_dump.cfg id type x y z v_sa_hydro v_sa_von
fix 1 all npt temp 300 300 0.1 aniso 0 0 1.0
fix avg all ave/time 10 1000 100000 v_lenx v_leny v_lenz
fix __pylammps_internal_run_callback all python/invoke 1 end_of_step _PyLammps_end_of_step_callback
run 100000
Per MPI rank memory allocation (min/avg/max) = 4.3 | 4.3 | 4.3 Mbytes
   Step          Temp          PotEng         Volume        Density          Pxx            Pyy            Pzz      
         0   300           -123.55227      232.91688      8.5651646      2595.2985      3409.6468      1996.6772    
       100   157.94175     -123.1806       237.22759      8.4095254     -14948.646      1535.2178     -8307.5302    
       200   250.48432     -123.16517      234.22583      8.5172992      28107.983     -8735.963       5935.789     
       300   237.84074     -123.05508      238.09833      8.3787713     -15602.757      907.19222     -10300.738    
       400   385.52174     -123.0559       234.10543      8.5216797     -4814.5371      19618.977      17896.857    
       500   232.25764     -122.8285       238.18507      8.3757199     -10274.852     -22783.667     -5425.1448    
       600   350.7719      -123.07558      237.39192      8.403704       13676.31      -15961.903     -13629.862    
       700   271.44695     -123.12654      233.60713      8.539857       2883.5911      33235.674      9801.5403    
       800   220.89506     -123.13456      237.46954      8.4009574     -20553.946     -15795.646     -6438.2652    
       900   243.40381     -123.19161      236.4535       8.4370562     -1885.4372     -17840.49      -3037.7578    
      1000   366.66525     -123.07392      235.08688      8.486103       15600.197      7410.6349      747.19531    
      1100   322.26209     -122.82998      236.88057      8.4218452     -6295.3058      11042.423      1828.17      
      1200   295.76599     -122.89319      234.1279       8.5208619      9582.9084      14437.572      6399.4605    
      1300   290.81073     -123.09562      240.66423      8.2894392     -20059.259     -37710.45      -30566.085    
      1400   254.29174     -123.06418      232.79012      8.5698287      9598.1487      6534.8221      39736.76     
      1500   248.77046     -123.01507      234.85551      8.4944632      738.8144       27855.247     -821.86271    
      1600   401.51549     -123.13065      240.83692      8.283495      -11914.333     -25478.142     -54313.357    
      1700   267.64767     -122.86156      233.09097      8.5587676      30888.454      5137.1927      38054.432    
      1800   331.39783     -122.90602      237.19209      8.410784      -25703.849     -10216.906      18896.737    
      1900   245.25139     -123.06202      237.1836       8.4110853     -22613.38       8594.7699     -29114.534    
      2000   240.39519     -123.1172       232.85326      8.5675049      36450.449      28656.008     -6473.6816    
      2100   184.52811     -122.93258      236.98117      8.4182701      3449.0705     -21005.595      13995.391    
      2200   448.9438      -123.20084      234.49072      8.5076777      1416.9259     -2823.446       24520.464    
      2300   317.51645     -123.0274       237.50469      8.3997138     -15911.285      1917.5302     -18905.795    
      2400   210.32199     -122.93036      237.95391      8.3838566     -629.97436      906.72805     -13219.503    
      2500   309.62346     -123.06585      234.4086       8.5106583      25750.705      7230.9897      10445.065    
      2600   396.8446      -122.90969      240.51455      8.2945979     -27004.248     -20880.431     -17915.904    
      2700   470.54947     -122.84093      235.70689      8.463781      -2381.8395      11774.803      25381.938    
      2800   312.07768     -122.9005       237.74981      8.391054       12408.192      3668.3375     -10602.422    
      2900   300.78537     -123.03448      236.64846      8.4301052      5065.869      -1006.4736     -1219.7695    
      3000   301.6909      -123.09466      237.97833      8.3829962     -25744.735     -137.40359     -9556.8013    
      3100   307.59518     -123.23203      236.23613      8.4448194      1351.792      -15389.845     -1099.921     
      3200   240.64827     -123.23289      234.503        8.5072322      15723.674      8252.0967      12219.908    
      3300   366.39666     -123.35231      236.4321       8.4378198     -5787.497      -2205.1376     -14864.536    
      3400   380.72603     -123.04614      240.43119      8.2974737     -33150.915     -21889.276     -18942.871    
      3500   401.98181     -123.04755      233.78238      8.5334552      26995.732      11101.714      21383.124    
      3600   302.0632      -123.02538      236.91606      8.4205836      5713.0534     -8685.5575     -799.92196    
      3700   295.36008     -123.09246      239.01788      8.3465366     -23848.977     -3729.1156     -29233.698    
      3800   318.82252     -123.15134      231.4417       8.6197582      24282.89       39213.277      29487.833    
      3900   315.04201     -123.10208      239.71669      8.3222051     -7595.8637     -34126.802     -17326.259    
      4000   260.25901     -122.8779       237.76943      8.3903613     -20509.959     -16811.623     -1410.5782    
      4100   459.76811     -123.072        233.0754       8.5593393      10607.446      38619.191      29169.759    
      4200   268.06777     -122.92328      239.96066      8.3137438     -13308.917     -12485.841     -25470.255    
      4300   276.58876     -122.99254      233.78437      8.5333826      37218.89      -8210.8981      5500.1351    
      4400   276.71473     -123.06916      237.70633      8.3925887     -15848.986     -15641.739     -408.32578    
      4500   371.92201     -122.88016      234.75928      8.4979451     -21561.57       39810.514      13056.195    
      4600   422.33169     -122.68824      236.99547      8.4177618      21061.246      9963.0826      3365.3891    
      4700   270.4143      -122.56365      239.35289      8.3348542      12602.105     -32498.187     -3618.5451    
      4800   259.91112     -122.83037      236.11157      8.4492745      3867.9535      7368.5783      14552.207    
      4900   290.09936     -123.00213      234.2768       8.5154459     -8780.6472      35540.257     -7548.062     
      5000   313.80139     -123.27078      238.76537      8.3553636     -19248.097     -30215.467     -20908.065    
      5100   213.31515     -122.96763      234.80087      8.4964399      18519.274     -9912.1394      22367.065    
      5200   369.29486     -123.04389      235.1371       8.4842906      11752.239      16859.098      17116.026    
      5300   303.13893     -122.77087      237.7305       8.3917354     -23353.497      2566.2868     -21621.011    
      5400   370.77668     -123.03535      238.09465      8.3789007     -4914.4473     -3658.8528     -23864.072    
      5500   201.61306     -122.84999      232.99012      8.5624722      36841.802      19472.047      36884.62     
      5600   243.60071     -123.08868      236.8114       8.4243051     -168.94855     -23499.417     -4628.6253    
      5700   210.30667     -123.1645       237.22863      8.4094886     -34452.915     -2251.1592     -20625.977    
      5800   185.37907     -123.25767      232.30709      8.5876478      20691.328      32690.638      23061.136    
      5900   215.36148     -123.20044      235.62953      8.4665597      16809         -7319.6001      3600.1432    
      6000   266.25757     -123.08056      238.56334      8.3624392     -20190.562     -29629.888     -14800.844    
      6100   384.43917     -123.17363      235.38365      8.4754036     -2143.2152      23392.959      784.64905    
      6200   348.57447     -123.12754      235.46455      8.4724919     -3073.1496      12062.632      9989.1408    
      6300   257.7863      -122.86755      239.67215      8.3237517      1678.887      -29074.077     -18571.582    
      6400   373.65378     -122.92179      235.14852      8.4838785      27889.775      4825.0251      7843.2559    
      6500   389.06053     -122.8769       235.69329      8.4642694     -18163.253      15520.225      9835.0307    
      6600   333.53917     -123.10478      237.82384      8.388442      -30103.804     -4461.9394     -11608.306    
      6700   320.51371     -123.1961       234.80433      8.4963148      35796.899     -10895.336     -2526.9401    
      6800   242.45394     -123.0475       236.92823      8.4201508     -4368.2787     -5213.6176      1549.5925    
      6900   449.38767     -123.24516      236.87107      8.4221828     -24654.098      2777.3802     -3221.4524    
      7000   339.0493      -123.04098      236.22327      8.4452791      6073.8929      2833.4603     -2932.8475    
      7100   270.08306     -123.00549      238.20841      8.3748993     -3342.215      -22032.158     -12621.634    
      7200   293.82576     -123.28689      234.40918      8.5106371      1460.2606      14875.245      9422.4685    
      7300   204.37573     -123.18601      234.72537      8.4991727      2763.0941      5744.8937      10701.072    
      7400   244.29944     -123.0628       238.8796       8.3513679     -14023.093     -15798.261     -18052.804    
      7500   260.46604     -122.89243      233.89408      8.52938        24065.8        26074.277      14768.074    
      7600   260.77891     -122.91501      234.87222      8.4938587      12768.744      7437.5751      14762.889    
      7700   217.75034     -122.88605      240.52337      8.2942938     -27513.328     -32235.392     -18484.695    
      7800   241.60386     -123.04787      233.33395      8.549855       26432.334      28785.714      10262.181    
      7900   217.53291     -123.16065      234.26301      8.5159474      10772.838      16406.441      5038.2729    
      8000   233.04631     -123.14936      240.27365      8.3029139     -35688.116     -30520.405     -26216.631    
      8100   289.43474     -123.01409      232.51834      8.5798458      24220.652      14237.587      31239.268    
      8200   340.92452     -122.92751      238.50262      8.3645684     -12813.584      1121.7233     -7768.0705    
      8300   319.22765     -122.8673       237.31645      8.4063766      9787.4408      974.04346     -14581.16     
      8400   294.3359      -122.96192      235.75903      8.4619092      6187.3364     -512.75084      5307.9218    
      8500   320.75072     -123.07287      239.18206      8.3408071     -19875.178     -23786.781     -6029.4579    
      8600   324.06437     -123.15744      231.09979      8.6325108      22284.945      40449.978      30868.023    
      8700   216.29949     -123.01208      241.25427      8.2691653     -23366.036     -31985.819     -39662.842    
      8800   354.02884     -122.93229      235.99213      8.4535508      4665.6777      12153.359      6825.1967    
      8900   380.33735     -122.76157      232.08814      8.5957494      37251.995      26804.969      44760.536    
      9000   327.48864     -122.74553      247.89174      8.047753      -65839.422     -59336.196     -60062.883    
      9100   306.7177      -122.94816      229.54802      8.6908678      72270.426      40156.109      32794.43     
      9200   295.72925     -123.12093      237.44298      8.4018969     -19323.558     -1743.486       1457.8214    
      9300   358.37945     -123.17039      240.6516       8.2898739     -55821.079     -24066.302     -29049.934    
      9400   250.87096     -122.93001      230.30834      8.6621763      54728.885      27929.027      36614.622    
      9500   263.50667     -122.88555      242.71504      8.2193976     -21313.222     -37173.664     -35870.432    
      9600   245.10266     -122.89485      232.86908      8.5669231      15675.749      34096.622      29327.335    
      9700   307.90042     -123.00119      234.44829      8.5092172      4674.8467      1363.9409      14029.097    
      9800   245.02947     -122.94204      243.7019       8.1861137     -38793.001     -34661.193     -41597.919    
      9900   221.57004     -123.02013      228.2144       8.7416544      65384.844      50881.105      53323.233    
     10000   236.01728     -123.16722      240.12736      8.3079722     -31668.693     -27014.778     -23711.56     
     10100   302.59083     -123.08468      237.195        8.4106809     -15448.682     -1297.4092     -8124.6017    
     10200   434.26321     -123.07674      235.44701      8.4731229      18230.975      8195.8403      10407.242    
     10300   303.16527     -122.8892       239.5311       8.328653      -12326.152     -8943.6725     -17501.047    
     10400   306.3993      -123.0572       233.99064      8.5258601      14044.752      8117.3801      14180.074    
     10500   201.59086     -123.03307      237.9898       8.3825922     -17094.67      -7932.9749     -5341.4153    
     10600   239.78        -123.10128      233.84894      8.5310264      21634.97       16113.561      9830.0062    
     10700   335.40245     -123.26122      237.38451      8.4039666     -4526.7897     -11623.444     -10838.575    
     10800   290.14996     -123.08133      238.09662      8.3788315     -29185.456     -10203.918     -4687.0237    
     10900   308.90491     -123.01506      233.30323      8.550981       18440.546      26026.494      12046.747    
     11000   283.3702      -122.85532      239.94486      8.3142912     -4745.9488     -23510.928     -18298.899    
     11100   435.15045     -123.07334      235.12243      8.4848199      4101.0656      4352.613       18138.447    
     11200   369.61658     -123.12333      236.77389      8.4256396     -12239.989     -3019.0062     -5271.1745    
     11300   250.10868     -123.12748      239.68761      8.3232148     -10521.947     -15433.312     -29100.958    
     11400   289.81019     -123.19776      230.35793      8.6603117      44054.483      26159.642      36001.274    
     11500   317.41034     -123.07334      240.70313      8.2880995     -45602.325     -27581.613     -28679.84     
     11600   332.52255     -123.00816      237.54779      8.3981899     -11661.903      1046.6143     -11311.257    
     11700   292.99803     -122.88287      231.15043      8.6306196      56425.868      21624.946      33620.644    
     11800   234.36091     -122.84095      241.76433      8.2517197     -35359.212     -22208.797     -29487.398    
     11900   337.72718     -123.01634      234.14926      8.5200844     -1449.7827      11074.698      19934.289    
     12000   296.94147     -123.07095      236.86109      8.4225379      2105.8571     -7306.8629      1990.8691    
     12100   222.13249     -123.12715      237.25297      8.4086259      5529.2633     -2259.7489     -21578.033    
     12200   207.35741     -123.15239      232.77994      8.5702033      13227.007      28607.364      18331.509    
     12300   327.5624      -123.1257       237.40512      8.4032369     -28595.681     -3088.6614      3700.9829    
     12400   300.69085     -122.90737      236.08553      8.4502065      20228.327     -17206.682      2172.5926    
     12500   381.87211     -123.00515      236.3946       8.4391582      11856.531      4398.3172     -14016.438    
     12600   202.93894     -122.82952      237.02577      8.416686      -14769.91       5431.5734     -5180.4351    
     12700   290.81355     -123.03053      233.68657      8.5369537      14136.847      11095.253      30125.672    
     12800   272.57243     -123.12027      236.74123      8.4268021      3637.2754     -14219.92      -938.92321    
     12900   205.57964     -123.14479      238.17683      8.3760099     -11703.232     -2341.6807     -33189.199    
     13000   220.67741     -123.16384      233.94699      8.5274508      10208.006      20718.582      15472.419    
     13100   308.78218     -123.04766      235.85902      8.4583215     -10824.898     -8852.6919      17905.501    
     13200   239.98978     -122.8121       239.05635      8.3451933     -8762.136      -19474.262     -14363.521    
     13300   322.68051     -122.90346      235.14421      8.4840339      18232.902      29985.657      9248.7921    
     13400   242.52941     -122.90246      235.44876      8.47306       -866.70021      5221.3501      5962.7459    
     13500   204.91696     -122.92735      238.28513      8.3722027     -11066.212     -20020.738     -10644.302    
     13600   255.41506     -123.27188      233.40371      8.5472996      26243.173      13875.904      10604.984    
     13700   258.22574     -123.37584      236.8604       8.4225623     -10233.555     -7480.5508     -16332.338    
     13800   169.83526     -123.03828      237.62076      8.395611      -34798.088     -8135.0826      1021.2888    
     13900   358.03164     -123.27109      232.46801      8.581703       36095.629      19066.531      17381.845    
     14000   202.261       -122.88569      239.64252      8.3247809     -8964.1425     -22919.586     -12131.812    
     14100   383.91945     -123.03739      235.73798      8.4626646      10521.988      7141.4798     -8525.4263    
     14200   371.24268     -122.97109      237.12568      8.4131397     -10566.189      7094.0024     -5671.551     
     14300   278.30695     -122.94033      237.25087      8.4087002     -16488.609     -9407.0292      3823.5147    
     14400   268.94571     -123.22865      234.75775      8.4980004      17656.088     -979.62807      4583.8433    
     14500   239.26028     -123.18196      236.10401      8.449545      -6044.2399      1901.8113      346.34836    
     14600   306.32645     -123.15142      235.35668      8.476375      -11142.007      10237.842      3504.5213    
     14700   241.51006     -122.91991      237.81563      8.3887313      2077.1786     -6617.9014     -16623.899    
     14800   359.73613     -123.03045      236.18685      8.4465814      6603.1456     -12416.071      10468.055    
     14900   257.31837     -122.87388      236.13927      8.4482833      22.374939      14204.486     -6281.6744    
     15000   271.97086     -122.9763       236.10591      8.4494768     -5737.2898     -3590.5328      12468.621    
     15100   228.66219     -122.91112      236.53694      8.4340798     -7786.3097      4270.2295      580.46768    
     15200   427.7878      -123.24173      236.49705      8.4355023      7827.9121     -1983.53       -9072.8129    
     15300   219.54833     -122.98797      236.43313      8.4377832      203.93036     -5222.962       3560.2327    
     15400   244.44849     -123.14446      236.62149      8.4310663     -11383.227     -9487.0067      8364.7747    
     15500   306.64888     -123.18599      233.89221      8.5294482      23507.083      23603.548     -293.04867    
     15600   348.91152     -123.0816       239.02257      8.3463729     -17300.008     -9892.7887     -36218.179    
     15700   431.59074     -123.04527      238.89155      8.3509501     -26998.386     -41546.775     -2434.6326    
     15800   367.53927     -122.97485      233.37346      8.5484077      11265.89       14792.161      39543.783    
     15900   337.13565     -123.08489      238.69991      8.3576549     -2198.116      -15832.867     -38854.077    
     16000   245.02631     -123.05843      237.04602      8.4159668     -8567.2115      3671.8773     -39656.965    
     16100   282.93516     -123.16733      234.15601      8.5198388     -1378.2639      7918.6095      28900.493    
     16200   304.37781     -122.76201      237.79903      8.3893171     -10462.439     -16729.31       27016.685    
     16300   342.68066     -122.78541      235.34747      8.4767066      31919.028      15981.488     -4260.384     
     16400   313.67314     -122.88845      240.31879      8.3013543     -7482.5565     -12551.988     -37824.731    
     16500   249.8515      -122.94851      234.52564      8.5064107     -11133.405      14405.461      22555.96     
     16600   261.91095     -123.09391      232.22016      8.5908626      12947.898      26737.323      34675.685    
     16700   296.1053      -123.07614      240.19093      8.3057737     -10067.625     -43868.998     -30289.174    
     16800   398.38016     -122.86588      237.52686      8.3989299      3269.154       6802.0579     -27564.771    
     16900   484.44743     -122.95259      235.22272      8.4812022     -2775.0283      12909.893      30180.309    
     17000   377.76567     -123.09633      237.90151      8.3857033     -24325.5       -22052.063      2732.9288    
     17100   270.33906     -123.05305      237.59385      8.396562       10648.329     -4086.006      -29526.831    
     17200   298.34887     -123.1372       233.29693      8.5512119      17470.496      22951.094      11627.866    
     17300   251.84574     -122.96182      237.76011      8.3906902     -15366.854     -8424.206       2053.4001    
     17400   335.05879     -122.95957      236.06153      8.4510655      2316.6615     -180.22493      5540.2425    
     17500   355.01336     -122.83515      235.82268      8.4596252      13754.526      8248.0628      8555.9887    
     17600   290.52485     -122.87427      237.16613      8.4117047     -12670.912      6139.4947     -1851.8199    
     17700   205.48688     -122.90943      236.99104      8.4179195      1369.9899      5490.2959     -8278.913     
     17800   257.29452     -122.98664      233.8391       8.5313852      29482.039      9507.9439      18926.527    
     17900   269.13969     -122.94341      237.44163      8.4019449     -17321.36      -14827.696      3728.3912    
     18000   377.79359     -122.87654      238.73343      8.3564814     -8126.7043     -2232.2966     -24956.314    
     18100   271.32166     -122.67804      234.45625      8.5089286      32541.753      25701.623      14906.34     
     18200   280.49213     -123.07142      236.8128       8.4242551     -6703.039      -2054.9395      311.70996    
     18300   196.36712     -123.05114      238.02479      8.38136       -20880.455     -21928.276      4496.7733    
     18400   249.87725     -123.04198      231.76132      8.6078705      37627.13       30098.698      14996.648    
     18500   281.9654      -122.89214      240.33329      8.3008536     -14723.116     -10184.936     -24910.404    
     18600   375.14405     -122.98175      234.18843      8.5186593      12180.918      17856.221      17397.916    
     18700   240.98617     -122.9288       237.84332      8.3877549     -3355.7582     -18701.285      2075.6388    
     18800   334.80079     -123.30395      236.65591      8.42984       -10769.908     -3687.7967     -9082.3373    
     18900   276.55895     -123.18785      233.52265      8.5429465      12926.299      16160.469      2880.6286    
     19000   238.92401     -123.08704      238.97874      8.3479036     -21341.057     -21635.773     -14855.447    
     19100   297.62986     -123.09237      233.89596      8.5293114      16028.098      9149.0435      26388.346    
     19200   351.41417     -123.02697      237.37595      8.4042695      2016.189      -4365.5309     -8709.2934    
     19300   287.99183     -122.82953      237.34211      8.4054679     -7874.4404      3627.9865     -24723.33     
     19400   294.40507     -123.17895      235.62953      8.4665597     -2444.2839      5028.1265      8599.2126    
     19500   287.9851      -123.29196      236.10708      8.4494352     -684.55609     -16882.631      14173.66     
     19600   254.04484     -123.19026      235.22511      8.4811159      6431.0318      5400.7007      3722.1076    
     19700   279.57105     -122.96744      237.35173      8.4051271     -6920.6549      9687.0769     -26514.159    
     19800   345.87551     -123.0272       236.65667      8.4298128     -14556.127     -10061.719      10324.682    
     19900   344.23452     -123.00233      236.6018       8.4317679      2044.737      -13925.194      13783.99     
     20000   374.03591     -123.16115      238.03757      8.3809099     -8199.9602     -11023.538     -17682.942    
     20100   309.38999     -123.251        236.1414       8.4482073     -748.89862      9364.5802     -13458.649    
     20200   275.25506     -123.2892       233.15723      8.5563355      20206.108      16048.445      11108.858    
     20300   229.61421     -123.04932      238.18865      8.375594      -35263.064     -22613.505      4692.1224    
     20400   312.61407     -123.00692      235.50382      8.4710792      14169.816      9285.8108      6439.663     
     20500   333.92911     -122.96261      234.48938      8.5077263      18561.591      18148.671      5018.2365    
     20600   261.82376     -122.904        239.97757      8.3131581     -18750.392     -13496.926     -37579.877    
     20700   310.07429     -123.04525      235.193        8.482274       8277.949      -8061.6248      23695.837    
     20800   225.11692     -123.07471      234.63732      8.5023622      8366.5158      6486.8366      25000.51     
     20900   240.46227     -123.20581      237.26407      8.4082326     -8767.3163     -1152.4904     -22168.038    
     21000   287.40757     -123.18964      235.94536      8.4552265     -3118.4738      2712.6105     -17735.406    
     21100   333.50938     -122.96324      237.39024      8.4037635     -10485.861     -5273.4962      13444.269    
     21200   384.03219     -123.00648      235.36272      8.4761574      16419.868      2966.105       12506.172    
     21300   349.92853     -123.12381      238.08586      8.37921       -8236.9825     -10722.829     -19903.492    
     21400   224.35917     -123.02943      235.29148      8.4787239     -3579.0222      18132.717     -12750.48     
     21500   296.88649     -123.13966      235.51191      8.470788      -2504.0953     -2363.7761      20690.651    
     21600   377.03009     -122.93269      238.3235       8.370855       10114.884     -15014.456     -3401.5403    
     21700   351.41223     -122.76479      233.95719      8.5270791      21771.739      25469.915      16530.326    
     21800   314.02538     -122.8818       239.98448      8.3129188     -29034.271     -7909.3395     -25363.76     
     21900   324.86988     -123.2012       234.61906      8.503024       7858.882       8257.1346      13347.403    
     22000   298.67369     -123.13066      235.3967       8.4749338      17455.731     -9271.4399      18535.218    
     22100   272.89159     -123.03887      239.8098       8.3189737     -27284.198     -21236.51      -24979.414    
     22200   309.42312     -122.89148      232.15954      8.5931057      7810.9859      41163.868      16793.455    
     22300   428.54109     -122.83544      239.16258      8.3414867     -5747.6214     -18425.827     -14344.836    
     22400   454.0418      -122.91151      239.19518      8.3403498     -4275.3718     -30104.667     -9130.5922    
     22500   331.87258     -122.95503      235.22028      8.4812901     -107.80766      16722.247      22997.207    
     22600   285.77312     -122.96365      236.38916      8.4393524     -34.650125      23868.272     -10845.586    
     22700   227.10668     -123.05553      237.17238      8.4114831      2182.0665     -12326.423     -4759.0731    
     22800   224.61702     -123.1065       234.05283      8.5235946      12892.666      907.93918      23843.708    
     22900   314.57794     -123.18063      236.94615      8.4195141     -17254.494     -8728.3708     -3518.4357    
     23000   295.47292     -122.8422       237.1948       8.4106879     -2346.8088      9252.6653     -17540.175    
     23100   369.33391     -122.94672      234.56506      8.5049815      39333.157      19517.43       5506.3674    
     23200   322.85146     -122.98815      239.76398      8.3205637     -46271.639     -30249.344      191.34703    
     23300   304.9519      -123.13857      234.72263      8.499272       1123.1056      10968.797      11564.888    
     23400   252.70647     -122.99772      233.21378      8.5542607      34588.139      19611.93       2843.0686    
     23500   298.95816     -123.0488       240.86004      8.2827        -17939.087     -23603.102     -35717.142    
     23600   311.62288     -123.02227      231.82346      8.6055633      8117.1085      28449.746      37547.998    
     23700   342.00133     -123.09954      239.58387      8.3268188     -35580.096     -29789.779     -13197.937    
     23800   271.55807     -122.93462      238.42899      8.3671515      10672.213     -14932.984     -29682.608    
     23900   359.98455     -123.10717      232.93204      8.5646075      22967.612      27441.379      25771.857    
     24000   232.77782     -122.94883      237.44842      8.4017043     -26052.811     -4640.907      -920.40383    
     24100   343.87408     -123.22519      237.17735      8.4113067      727.85428     -16253.469     -15816.866    
     24200   264.4589      -123.14345      235.16718      8.4832051      27528.142      10951.723      12448.676    
     24300   225.83547     -122.98281      235.01151      8.4888246     -10345.286      12477.469      15351.646    
     24400   325.68052     -122.92974      240.01275      8.3119397     -35636.812     -19467.89      -24384.684    
     24500   374.10187     -123.00448      234.15549      8.5198578      29237.427      2606.8623      26521.321    
     24600   279.38203     -123.04083      236.24815      8.4443897      5717.6892      3855.0869     -2926.8803    
     24700   223.78032     -123.13619      238.44934      8.3664374     -24038.311     -10369.626     -23428.71     
     24800   273.52572     -123.20805      233.6376       8.5387432      14743.468      15193.316      15129.695    
     24900   294.01141     -123.16552      237.61018      8.3959848     -8427.5791     -19528.047     -11373.303    
     25000   368.17611     -123.21167      237.38273      8.4040296     -10205.761     -21880.767     -15338.019    
     25100   330.66548     -123.08168      234.21626      8.5176472      42.8834        27191.188      3473.5633    
     25200   234.43452     -123.01626      237.00397      8.4174601     -7815.0321     -15435.54       11096.887    
     25300   301.49906     -123.17694      235.43767      8.4734589      13047.548      9252.8961     -8467.3486    
     25400   333.92358     -123.23416      236.74109      8.4268068     -6869.7338     -6031.2898     -8796.5533    
     25500   292.66188     -123.20902      237.5224       8.3990877     -6023.305      -22792.034     -12163.022    
     25600   286.91058     -123.16057      234.32156      8.5138195      5816.3005      19398.834      6200.7324    
     25700   447.67268     -123.22041      234.43454      8.5097166     -22484.83       18014.886      14130.536    
     25800   364.05005     -123.11795      239.9991       8.3124124     -27844.941     -30044.843     -24618.378    
     25900   253.32346     -122.82227      235.42588      8.4738835      39746.98      -21674.16      -7742.4741    
     26000   238.05624     -123.09737      236.49227      8.4356729     -2156.2944      77.872217     -160.25918    
     26100   247.42183     -123.00449      233.60163      8.5400581     -24931.122      36026.476      13064.4      
     26200   318.45216     -123.08604      235.88577      8.4573625     -3369.1381     -3019.9709      14515.003    
     26300   345.87423     -122.86124      237.42785      8.4024324      29276.562     -25617.474     -21044.153    
     26400   368.93283     -122.99468      238.27506      8.3725568     -18871.081      2546.0791     -14903.608    
     26500   221.52847     -122.96574      233.66728      8.5376585     -7488.7683      22629.454      32099.868    
     26600   242.74692     -123.19374      235.09853      8.4856823      7286.5718      2513.3729     -1561.9163    
     26700   165.18476     -122.92685      239.03805      8.3458321      6927.3166     -30527.716     -21928.219    
     26800   370.39383     -123.13091      233.39717      8.5475392      2667.3072      29252.113      18915.327    
     26900   323.61057     -122.98167      236.37428      8.4398838     -25915.548      9494.9015     -4355.8112    
     27000   385.20452     -123.146        237.59646      8.3964695      1021.5928     -23560.036     -11468.66     
     27100   242.84909     -123.05415      235.96917      8.4543735      18544.052     -1878.0126     -404.88686    
     27200   203.73895     -123.14048      235.657        8.4655726     -11780.252      4861.1579      10782.966    
     27300   263.39714     -123.37599      235.35039      8.4766014     -6681.9883      7860.9045     -12010.393    
     27400   205.28188     -123.35123      235.09028      8.4859802      1112.6279     -1339.1746     -5222.9716    
     27500   265.09444     -123.22777      236.98553      8.4181151     -4384.3046     -18537.59       3335.4159    
     27600   310.50724     -123.13534      234.92186      8.4920638      3999.6018      8691.4458      7931.5292    
     27700   278.15646     -122.92194      237.43912      8.4020335     -12478.658      3410.1154     -15545.485    
     27800   274.82601     -122.93705      236.24048      8.4446638     -102.66952      1177.7473     -293.91053    
     27900   301.35415     -123.0591       234.7444       8.4984837      14507.188      2264.1766      15275.441    
     28000   205.43014     -123.07221      237.71946      8.3921251     -18660.51      -6795.5547     -9583.1275    
     28100   267.20965     -123.20945      234.35338      8.5126633      10692.068      12302.951      4350.6775    
     28200   300.9131      -122.98571      236.05134      8.4514302      5565.4903     -12101.413     -74.941617    
     28300   247.38915     -122.79433      240.06301      8.3101994     -23324.173     -13164.349     -23547.75     
     28400   397.4268      -123.11563      230.63397      8.6499464      39848.688      51925.87       38067.369    
     28500   301.70019     -123.15624      239.03804      8.3458326     -15935.532     -20958.493     -6763.6563    
     28600   250.11017     -123.06189      238.82831      8.3531615     -20993.576     -30684.41      -21086.04     
     28700   324.18714     -123.10717      233.25469      8.5527604      26057.112      28193.438      14758.737    
     28800   396.85466     -122.92848      236.88997      8.421511      -8597.4865      10535.393      502.18397    
     28900   343.503       -122.75574      239.21826      8.3395451     -10788.713     -9263.9719     -13173.342    
     29000   318.30774     -122.93065      235.41873      8.4741407      23105.34      -6380.5336      13115.579    
     29100   275.78393     -123.03163      237.75226      8.3909675     -11314.25      -4721.4465     -16622.059    
     29200   324.12852     -123.11072      235.25753      8.4799473     -7132.2044      12729.495     -625.62294    
     29300   305.80285     -123.03961      235.49555      8.4713766      8775.7771      1011.4272      10839.338    
     29400   240.12967     -122.9661       237.77157      8.3902859     -5322.8026     -21461.693     -491.7699     
     29500   332.12066     -123.18799      234.90484      8.4926793      30.070531      14452.41      -5121.6932    
     29600   254.29272     -123.18635      237.38654      8.4038945     -19294.204      5790.5304     -14425.749    
     29700   267.2347      -123.2588       234.26914      8.5157247      15125.857      6279.5045      13208.659    
     29800   310.43354     -123.08855      234.38859      8.5113847      18335.639     -4924.4694      21744.008    
     29900   315.19696     -122.92253      242.19679      8.2369854     -29952.654     -41451.684     -31106.473    
     30000   333.20679     -123.02416      232.73037      8.5720288      24752.161      44192.449      6962.0527    
     30100   316.11314     -123.07844      234.91044      8.4924769     -7022.9454      19412.77       14313.195    
     30200   301.83439     -123.16873      240.53637      8.2938453     -32874.796     -45564.39      -17142.549    
     30300   212.69155     -123.15765      233.6902       8.5368214      33567.792      1400.4317      10155.99     
     30400   217.54239     -123.22987      234.61082      8.5033223      79.762029      11523.295     -690.40807    
     30500   263.36048     -123.03985      237.71277      8.3923614     -27320.755      140.01414     -11451.029    
     30600   312.7388      -122.96816      235.92586      8.4559255      15708.441      306.59185      6872.1551    
     30700   358.21734     -122.98032      236.66104      8.4296572      25877.388     -11655.319      8756.699     
     30800   296.09206     -123.00078      236.93614      8.4198698     -15862.052     -3100.7719      1484.7179    
     30900   262.09318     -123.01869      236.97612      8.4184492     -15272.046      4234.682      -18412.02     
     31000   191.87078     -123.10411      235.01211      8.4888026      21456.948      6632.2331      16942.709    
     31100   273.3158      -123.20885      234.4762       8.5082045      23756.377      2812.3773      3537.8564    
     31200   297.28533     -122.94948      238.76854      8.3552526     -38554.38      -16986.416      2282.9724    
     31300   383.11912     -123.08031      235.97511      8.4541605     -1742.1814      14667.702     -5618.7135    
     31400   307.56492     -122.9952       235.36013      8.4762507      24967.473      7787.5579     -223.90333    
     31500   346.33148     -123.10693      237.82531      8.3883899     -15952.802     -17348.45      -10394.636    
     31600   309.85093     -123.12964      238.08595      8.3792071     -20396.039     -25241.875      2975.2307    
     31700   311.72599     -123.22466      233.56169      8.5415182      13446.687      16374.636      4360.1998    
     31800   265.69732     -123.09488      237.5557       8.3979104     -14365.085      6570.6531     -19503.02     
     31900   396.30168     -123.11611      235.78319      8.4610419      16058.454     -13568.313      11422.785    
     32000   191.1599      -122.64279      237.14793      8.4123504     -1308.1751      825.48179      1419.5201    
     32100   321.27351     -122.93111      237.48733      8.400328      -19509.203     -894.89724     -6499.9878    
     32200   229.58531     -123.14556      234.91217      8.4924142      10493.184      8785.1953      5842.363     
     32300   230.28983     -123.17191      233.9705       8.526594       20770.727      13263.073      9386.3868    
     32400   298.96904     -123.07857      239.50445      8.3295799     -23735.49      -35684.455     -17962.783    
     32500   345.6628      -123.06314      235.61162      8.4672033      1474.9998      6622.659       3615.3229    
     32600   459.99074     -123.18133      233.06344      8.5597787      14600.089      25457.86       16693.447    
     32700   290.45414     -122.9582       242.11044      8.2399234     -35073.605     -34858.701     -39615.36     
     32800   276.55599     -123.1144       231.7379       8.6087407      35662.344      13641.858      30645.074    
     32900   229.93889     -123.29434      235.04317      8.487681      -9756.665       4072.587       12841.357    
     33000   242.4949      -123.21502      238.80234      8.3540698     -23703.95      -15427.215     -31316.165    
     33100   222.33902     -123.01168      233.12009      8.5576987      25783.246      21945.938      13478.366    
     33200   279.40724     -122.98101      237.40753      8.4031514      1849.9906     -15887.506      1121.5714    
     33300   279.99934     -122.9559       236.75103      8.4264531     -7339.1        -3179.4802      20.48093     
     33400   236.50652     -122.87398      234.10425      8.5217224      20298.508      26415.525      3736.1941    
     33500   250.98232     -123.08268      239.22383      8.3393508     -15642.842     -14058.245     -16897.468    
     33600   178.11417     -123.06004      233.506        8.5435553      21513.224      4962.8198      36091.281    
     33700   263.40148     -123.18813      234.14405      8.5202741      7726.9839      10547.253      15515.944    
     33800   256.59148     -122.8712       241.10914      8.2741428     -44505.86      -12835.577     -32936.572    
     33900   407.252       -122.90551      234.61302      8.5032428      31924.677      25817.176     -10824.163    
     34000   322.72663     -122.9304       237.50737      8.3996193      3759.9146     -19141.318      7346.9852    
     34100   316.58078     -122.99215      237.08185      8.4146949     -22243.935     -19465.152      15485.593    
     34200   316.34959     -123.10645      235.63655      8.4663075      8048.9838      12371.156     -7694.6311    
     34300   246.72837     -123.0675       234.88145      8.4935251      22944.14       18913.836     -18437.002    
     34400   205.90762     -123.26282      237.02228      8.4168099     -21536.209     -22555.936     -320.51817    
     34500   179.24047     -123.1737       235.7695       8.4615331     -16610.654     -1228.4971      13966.756    
     34600   199.09266     -122.91027      231.84384      8.6048068      35995.901      37899.846      23860.121    
     34700   266.03068     -122.85681      239.94778      8.31419       -4986.495      -16202.284     -36387.074    
     34800   359.55388     -122.98423      234.73401      8.4988598      15065.936      4744.7875      18607.739    
     34900   301.72415     -122.99763      236.36597      8.4401807     -5627.6675      5087.1856     -1067.3581    
     35000   292.88314     -123.23843      237.6745       8.3937126     -23671.786     -24299.039     -33.109125    
     35100   266.5223      -123.23054      232.72621      8.5721822      24680.347      27589.78       18496.622    
     35200   257.21375     -123.10456      236.74113      8.4268055      350.16471     -777.81451     -11690.433    
     35300   281.94566     -122.99884      238.20405      8.3750528     -14904.535     -21057.567     -19698.225    
     35400   387.89111     -123.18565      235.96417      8.4545526     -5747.0388     -146.68569      1066.2722    
     35500   282.45136     -123.01121      236.07878      8.4504482      8801.0288      2598.6444      9525.1242    
     35600   335.30108     -123.14093      235.25446      8.4800581      429.52145      5709.2958     -1897.5941    
     35700   183.89633     -123.05291      238.4905       8.3649932     -24926.853     -15970.447      2175.4999    
     35800   300.23869     -123.36754      231.53836      8.6161598      30538.757      25167.593      19649.301    
     35900   204.79586     -123.05734      238.79991      8.3541549     -8920.2515     -15734.764     -26187.306    
     36000   295.73193     -123.0311       236.52051      8.4346658     -10067.337     -1458.6748      3774.5837    
     36100   337.15449     -123.02414      232.78004      8.5701998      24423.446      24908.71       35394.235    
     36200   339.73782     -123.07196      240.92993      8.2802973     -26433.672     -33614.324     -34365.527    
     36300   347.15567     -123.22649      234.59527      8.5038862      6240.0121      8580.5388     -6261.0308    
     36400   289.3588      -123.28275      232.95413      8.5637952      14158.381      23250.347      14787.519    
     36500   245.92073     -123.18938      239.03947      8.3457827     -28223.944     -39788.583     -2213.4618    
     36600   362.88091     -123.17047      233.03102      8.5609696      24935.803      12613.882      9124.802     
     36700   302.95163     -122.86668      238.24137      8.3737408     -12658.25       10678.567     -24421.327    
     36800   359.56924     -123.131        235.23864      8.4806281      3137.1569      3939.0597      5338.4226    
     36900   242.55863     -123.05114      236.54981      8.4336212     -7498.5897     -17806.856      5244.4422    
     37000   269.07096     -123.1473       237.68003      8.3935174     -10822.66      -9675.3874     -11487.638    
     37100   294.89752     -122.9383       231.92389      8.6018369      31511.31       46839.596      20342.055    
     37200   326.81095     -122.67232      242.65867      8.2213073     -28511.641     -35439.154     -29279.613    
     37300   424.97418     -123.02602      236.14103      8.4482203      9855.9072     -2334.0748      9671.0165    
     37400   356.00042     -123.06814      233.74151      8.5349473      14968.991      19893.108      18090.221    
     37500   192.94904     -122.87836      241.669        8.2549748     -34935.365     -25755.256     -37422.144    
     37600   236.35465     -122.9881       230.67223      8.6485118      38617.212      31398.775      46187.6      
     37700   227.87909     -122.91443      237.93123      8.3846558      2020.8797     -2715.2025     -2216.4708    
     37800   372.95019     -122.89385      237.38293      8.4040222     -9436.837      -2639.1241     -6707.7106    
     37900   384.34661     -122.78581      235.13474      8.4843755      9484.5524      17934.413     -619.042      
     38000   282.92304     -122.9119       238.77978      8.3548591     -14873.493     -23384.657     -15963.639    
     38100   306.18675     -123.07649      234.74931      8.4983058      16922.761     -2039.1987      15442.505    
     38200   348.78067     -123.18871      235.40759      8.4745418     -3446.498       7736.0591      3147.408     
     38300   378.94804     -123.20497      239.01236      8.3467292     -23980.692     -11661.827     -31978.074    
     38400   304.5861      -123.08077      233.6867       8.5369491      23817.838      15127.352      17867.191    
     38500   314.07986     -123.02853      235.08693      8.4861013      4110.3251     -458.68046      23676.803    
     38600   191.22895     -122.78455      240.24334      8.3039617     -14465.85      -24808.375     -29466.695    
     38700   315.81578     -122.93663      233.03706      8.5607476      26664.972      43277.256      7000.124     
     38800   320.24275     -122.91599      237.87899      8.3864969     -2597.9822     -12261.028      3585.5308    
     38900   232.1502      -122.85951      236.54821      8.4336781     -11796.302     -13476.855      14386.084    
     39000   231.27521     -123.14467      233.439        8.5460077      10313.152      12042.044      7297.8155    
     39100   285.56091     -123.18301      239.59495      8.3264336     -25651.646     -6337.5726     -49321.736    
     39200   284.87926     -123.02652      233.92597      8.5282172      20339.147     -1620.7033      25725.142    
     39300   340.64686     -123.06296      236.63109      8.4307242      1350.1887      150.51568      15675.469    
     39400   303.54582     -123.00757      236.93025      8.4200791     -20391.759      2816.8766     -15641.306    
     39500   316.96472     -123.15751      235.87034      8.4579158      4225.5099      6711.5352     -11317.55     
     39600   263.52427     -123.18772      235.56166      8.4689991      8319.5062      2918.1401      11850.082    
     39700   183.14607     -123.04983      236.84608      8.4230716      741.41924     -23259.92       3647.7461    
     39800   288.08124     -123.00488      237.03139      8.4164865     -6642.5869     -5326.8956     -6421.3279    
     39900   383.50336     -122.92093      236.33242      8.4413788     -9723.236       30637.172     -17295.149    
     40000   296.07128     -122.87615      236.82262      8.4239059      14732.359     -4442.122       452.28817    
     40100   357.47002     -123.12363      236.62146      8.4310672      684.25535     -30042.529      11497.136    
     40200   298.7877      -123.24973      235.85582      8.4584364     -20606.991     -2171.067       2922.7588    
     40300   238.86761     -123.12573      234.77669      8.497315      -2349.9342      30703.914     -1613.4989    
     40400   250.67016     -123.06366      235.97189      8.4542759      21237.911     -6889.6807     -3218.7728    
     40500   248.81614     -123.00796      236.32271      8.4417255      7112.6824     -15911.579      4679.7463    
     40600   370.95567     -123.11013      238.24504      8.3736117     -26353.769     -22346.231     -8578.6775    
     40700   251.0743      -122.88359      235.22222      8.4812204      3132.5433      26911.782      772.91082    
     40800   378.49458     -123.19251      232.98688      8.5625915      34082.907      22154.349      12324.631    
     40900   305.87395     -123.21537      240.84174      8.2833293     -46399.465     -45067.812     -26651.808    
     41000   203.86878     -123.207        234.52792      8.5063282     -2837.2837      6783.5988      11584.522    
     41100   273.51189     -123.13681      232.12508      8.5943815      39037.826      23312.148      24005.561    
     41200   348.57627     -123.02408      242.17073      8.2378719     -27554.131     -36539.322     -40701.726    
     41300   365.29674     -123.02564      235.00734      8.4889751      1251.5032      11674.71       3585.2975    
     41400   296.11816     -123.00246      236.80739      8.4244478     -12307.436      1274.4011      8149.6515    
     41500   268.27885     -123.19462      236.44745      8.4372721      7621.5633     -4911.6567      84.984637    
     41600   185.8065      -123.14049      233.50697      8.5435198      17609.02       21609.987      6891.5639    
     41700   290.45192     -123.22131      239.48284      8.3303317     -22452.552     -19436.83      -31970.587    
     41800   195.17047     -122.95896      234.10522      8.5216871      9457.5145      7100.0363      41057.393    
     41900   350.12767     -123.14098      233.54953      8.5419629      25558.595      16032.018      16943.752    
     42000   337.3606      -122.90346      242.55084      8.224962      -33549.149     -26406.122     -44919.622    
     42100   373.0278      -122.978        231.89451      8.6029265      30043.291      45078.098      19690.858    
     42200   202.29595     -122.82673      238.3368       8.3703877     -19880.417     -28016.702      22610.224    
     42300   241.46674     -123.19357      236.40718      8.4387094      3949.0277     -6760.251      -8316.5646    
     42400   222.5585      -123.09692      234.23381      8.5170089      15872.692      29201.877      32.094074    
     42500   272.91751     -123.09209      238.21277      8.374746      -8246.0511     -10228.158     -20563.424    
     42600   222.43321     -122.91381      235.48485      8.4717615     -5495.5889     -8765.4797      26425.446    
     42700   361.21633     -123.09653      234.84051      8.4950057      5590.5666      13079.19       10312.716    
     42800   259.25992     -122.86625      239.2167       8.3395996     -11075.667     -1584.0527     -34301.31     
     42900   425.12104     -122.87837      236.81144      8.4243036      13499.613     -4578.9387     -6927.2263    
     43000   347.81681     -122.71611      237.32729      8.4059928     -11228.544     -11162.183      20786.549    
     43100   364.08764     -123.15455      235.33687      8.4770885      1418.3459      2550.4285      8016.2302    
     43200   289.87828     -123.03744      235.81994      8.4597233      11029.221      17145.843     -19668.555    
     43300   234.72272     -122.98219      237.43059      8.4023353      1367.3193      1497.8197     -10480.794    
     43400   287.27946     -122.98283      235.9806       8.4539639     -6107.5661     -8063.8516      29693.063    
     43500   360.00614     -123.18949      235.66892      8.4651443      2089.7799      11995.144      516.13403    
     43600   377.2565      -123.18709      236.95449      8.4192177      7873.799      -5071.3448     -26731.587    
     43700   216.04744     -122.95356      237.11808      8.4134095     -12980.931     -6856.0118      3265.6548    
     43800   237.96299     -122.98111      233.19141      8.5550812      15020.426      13520.879      27537.399    
     43900   318.26303     -123.14066      238.59134      8.3614581     -15352.576     -14280.466     -16235.243    
     44000   266.25745     -123.00436      236.56606      8.4330419      3285.5181      1726.0838     -10396.752    
     44100   407.35774     -123.109        235.48493      8.4717585      9725.4709      9040.5982      15201.437    
     44200   273.62269     -122.89095      235.77663      8.4612772     -7411.1572      19280.356      7058.3789    
     44300   285.44053     -123.14793      237.86013      8.3871621     -4931.1222     -33276.982     -8445.0593    
     44400   284.28348     -123.28681      237.6414       8.3948819     -7279.5012     -7850.4818     -22769.097    
     44500   326.22895     -123.22863      232.73671      8.5717954      23438.296      32190.831      15241.756    
     44600   325.38543     -123.07985      238.05135      8.380425      -34455.259     -18614.076      6536.9708    
     44700   347.3336      -123.13615      238.11508      8.3781819     -5139.334      -10593.494     -14469.519    
     44800   308.93697     -122.95853      234.28376      8.5151932      39156.989      15493.352      3984.8711    
     44900   360.35187     -123.02746      238.32873      8.3706714     -32235.005     -17731.286     -3745.7918    
     45000   310.49153     -123.13321      236.01785      8.4526296     -19533.192      8443.8627     -2452.6929    
     45100   216.60665     -123.15883      233.37171      8.5484718      33901.135      13015.43       8873.6933    
     45200   272.06023     -123.16373      238.19596      8.3753372      2860.9323     -24886.672     -14692.097    
     45300   292.53272     -123.05864      236.81204      8.4242824     -15857.664      4071.4689     -2820.8575    
     45400   358.51059     -123.16972      233.11728      8.5578018      748.44792      23721.192      17326.302    
     45500   198.01882     -122.99199      239.54808      8.3280629     -13687.955     -23037.943     -31913.209    
     45600   315.80395     -123.17236      234.62244      8.5029012      17965.555     -6049.4783      10414.258    
     45700   347.02668     -122.97142      234.93191      8.4917008     -1280.1156      5666.9053      27184.452    
     45800   303.17751     -122.72924      238.7225       8.3568641     -21764.206      7101.8842     -22229.882    
     45900   232.07122     -122.7365       234.00038      8.5255054      31643.156      19609.762      20613.928    
     46000   314.22553     -122.97206      238.20046      8.3751789      619.01436     -21281.41      -17025.018    
     46100   296.73787     -123.05839      238.96994      8.3482109     -21618.531     -10734.558     -13192.988    
     46200   301.71089     -122.98685      230.27608      8.66339        47446.301      30927.519      51198.099    
     46300   250.0842      -123.03383      241.02759      8.2769423     -40472.751     -18286.895     -35559.232    
     46400   181.67939     -123.18387      235.29467      8.4786089     -47.287602     -4735.2653      5709.8972    
     46500   243.73612     -123.24893      232.24452      8.5899612      27432.443      28836.965      21066.208    
     46600   262.92201     -123.0904       238.87531      8.351518      -24295.63      -19450.611     -16308.874    
     46700   276.70975     -123.0314       235.72343      8.463187       7224.641       4525.923      -8299.3411    
     46800   402.99044     -123.18953      236.33766      8.4411915     -506.06529     -4978.636       6065.0952    
     46900   267.02909     -122.97304      236.52268      8.4345885     -17735.746      2582.5652      6465.6498    
     47000   395.13272     -123.31623      234.80429      8.496316       8772.5431      4103.8882     -8020.4352    
     47100   142.90721     -122.95852      239.57578      8.3271        -14045.223     -22317.205     -23322.627    
     47200   234.86109     -123.05482      232.00214      8.5989357      34197.665      22869.29       28561.002    
     47300   293.6826      -122.92031      237.46414      8.4011484     -17787.842      131.48858     -593.95697    
     47400   429.44618     -123.07555      239.49869      8.3297804     -21414.139     -27246.474     -8858.1846    
     47500   357.28768     -123.02056      234.22476      8.5173379      26807.74       23060.307     -341.71766    
     47600   262.73306     -123.00547      239.24266      8.3386946     -9488.0979     -8866.8832     -21733.407    
     47700   312.44146     -123.0879       232.0205       8.5982551      381.83679      13411.239      47283.558    
     47800   315.71226     -123.1733       237.57369      8.3972743     -12832.591     -3542.0025     -10121.915    
     47900   313.61337     -122.97433      237.99072      8.3825599      25307.312     -11025.078     -36490.25     
     48000   164.44507     -122.74174      233.81985      8.5320877      3441.5585      15539.551      31353.356    
     48100   342.42147     -122.93967      240.18015      8.3061461     -43044.656     -18536.254     -5618.979     
     48200   294.00656     -123.08812      232.70086      8.5731159      29841.496      22000.851      20813.594    
     48300   253.71385     -123.04187      237.51762      8.3992565      18229.434     -8825.5781     -36159.894    
     48400   197.93572     -122.94141      237.57273      8.3973082     -30820.859     -10433.157      7554.2698    
     48500   335.6289      -122.84807      230.40054      8.6587101      22017.021      42979.232      63820.76     
     48600   239.30379     -122.65968      242.97567      8.2105813     -7440.0463     -29650.32      -42708.292    
     48700   303.04661     -122.96351      234.75019      8.4982742      32237.823      14629.518     -5034.2601    
     48800   280.97607     -123.20007      234.13067      8.520761      -20256.678      9795.0226      27515.751    
     48900   260.01238     -123.28169      238.89745      8.3507441     -31335.887     -22280.852     -10881.569    
     49000   266.78978     -123.10153      233.65449      8.5381261      48284.242      7392.2758     -7423.9894    
     49100   315.80486     -123.16706      238.851        8.3523682     -26130.936     -21918.888     -4361.7659    
     49200   306.89881     -122.99626      234.16901      8.5193657     -4317.2504      34799.467      5102.7652    
     49300   263.49143     -122.90271      236.62989      8.4307668      2698.5716      3733.6334     -455.27983    
     49400   308.84042     -122.83934      240.54364      8.2935948     -5492.8763     -32803.564     -11651.458    
     49500   309.40997     -123.00593      233.30719      8.5508358      22747.076      20968.837      18708.751    
     49600   278.83435     -123.16709      238.69162      8.3579452     -19449.506     -11690.996     -9477.8565    
     49700   180.78552     -123.06791      234.39823      8.5110348      11536.943      19660.936      6092.977     
     49800   293.98183     -123.15562      237.35577      8.4049839     -1017.187      -2544.2618      2884.8517    
     49900   386.20787     -123.07988      235.73837      8.4626506      7393.5657     -3910.2797      6448.7446    
     50000   270.89557     -122.85359      237.38287      8.4040244     -16363.444      12162.49      -12244.715    
     50100   348.62868     -123.10604      238.14046      8.3772889     -1909.3036     -16976.115     -11121.769    
     50200   350.36449     -123.10779      232.28675      8.5883997      29491.585      14767.591      39441.908    
     50300   291.82305     -123.03763      240.55099      8.2933411     -35690.724     -31690.648     -25741.3      
     50400   302.30634     -122.91051      238.16013      8.376597      -12644.787      2050.2354     -15765.535    
     50500   286.47138     -122.62552      231.02185      8.6354234      56370.423      56430.591      39165.917    
     50600   368.48997     -122.94996      241.05677      8.2759405     -30490.822     -29422.104     -13130.157    
     50700   274.06457     -122.98035      237.75313      8.3909366     -2237.0309     -37653.481     -3243.8621    
     50800   285.15951     -123.18268      235.11969      8.4849186      15795.536      16421.611     -4789.0004    
     50900   304.19724     -123.09927      232.61331      8.5763425     -5418.9338      48581.118      20573.692    
     51000   219.97295     -122.93951      238.19577      8.3753438     -8993.2974     -19118.677     -10791.477    
     51100   305.95278     -122.87509      240.09719      8.3090163     -2461.6565     -37694.643     -15216.48     
     51200   450.64795     -122.6906       233.76426      8.5341166      26773.381      41605.517      22935.853    
     51300   494.1488      -123.02861      240.81295      8.2843195     -29342.94      -31019.678     -15429.635    
     51400   338.15658     -123.07521      237.45622      8.4014286     -6096.8218     -14625.74      -16763.688    
     51500   297.59759     -123.1047       234.42182      8.5101781      12806.577      18314.514      8251.9478    
     51600   321.46322     -123.21005      237.50762      8.3996102     -5587.3475     -3777.5741     -3711.8977    
     51700   338.34925     -123.24657      233.84573      8.5311434      4649.2695      2061.7848      8962.5038    
     51800   320.06894     -123.06376      241.03931      8.2765397     -42417.021     -26756.981     -23012.936    
     51900   310.58668     -122.84929      233.15213      8.5565225      35493.423      30597.561      24641.085    
     52000   301.89203     -122.86517      236.34164      8.4410495      10800.398      5466.5015     -5700.7971    
     52100   260.67277     -122.96613      239.66203      8.3241033     -29778.208     -29124.736     -15849.777    
     52200   193.44995     -122.98956      231.65765      8.6117227      25542.731      26626.071      32269.46     
     52300   284.51239     -123.11928      239.44544      8.3316327     -15753.084     -11566.062     -29520.532    
     52400   297.65563     -123.06499      236.08747      8.4501371      6394.9606     -1499.7716     -3192.536     
     52500   352.38802     -123.07748      234.29788      8.51468        11128.032      16157.302      14907.831    
     52600   415.46161     -123.15794      238.35175      8.3698629     -27257.731     -33290.358     -8062.2377    
     52700   223.17917     -123.00261      237.31312      8.4064946     -5044.2409     -988.50612     -13444.529    
     52800   237.15714     -123.18058      233.26342      8.5524404      28489.771      23814.944      19133.147    
     52900   132.39743     -123.30496      235.18493      8.4825649     -10259.544     -1677.34        73.214031    
     53000   202.15164     -123.30933      237.72372      8.3919746     -25696.65      -26373.997     -16338.505    
     53100   228.62564     -123.16625      233.42591      8.5464869      26980.139      16459.621      19791.425    
     53200   200.37275     -122.90443      234.5363       8.5060242      16751.271      29253.461      1567.6244    
     53300   261.75162     -122.8342       240.77933      8.2854764     -34065.634     -31459.049     -10879.105    
     53400   299.38068     -122.89178      232.57672      8.5776921      26546.82       12719.54       37095.136    
     53500   297.89935     -123.10049      236.88158      8.4218093     -534.33818     -707.60146     -10925.509    
     53600   239.00924     -123.0914       238.44672      8.3665291     -22059.322     -916.68845     -38295.596    
     53700   237.02626     -123.18419      231.29754      8.6251304      23222.85       23196.571      29975.462    
     53800   242.62183     -122.9958       240.65497      8.289758      -20594.786     -44440.373     -4748.4611    
     53900   405.99294     -123.10741      231.82816      8.605389       29637.613      24252.648      23807.579    
     54000   362.89121     -122.94939      239.48867      8.3301287     -34405.42      -1161.6232     -34564.25     
     54100   249.64363     -123.0171       239.53248      8.328605      -18226.739     -21734.694     -15352.197    
     54200   253.73237     -122.92716      227.84287      8.755909       87503.851      43384.906      59367.798    
     54300   257.76904     -122.98729      242.05276      8.241887      -42322.948     -34487.582     -30094.619    
     54400   446.96117     -122.96607      237.87229      8.3867334     -27885.985     -69.378678     -22224.014    
     54500   329.88479     -122.87585      233.93994      8.5277079      29069.526      24907.544      23574.859    
     54600   348.3786      -123.11195      237.33899      8.4055782      3990.3626     -7480.4256     -2135.0966    
     54700   305.26528     -123.15621      237.29937      8.4069817     -17796.104     -12575.06      -10854.412    
     54800   288.65383     -123.14719      234.72663      8.4991271      5178.9171      4476.9191      3346.6515    
     54900   206.87212     -122.91787      237.51189      8.3994592      7495.0843     -7358.6779     -978.16288    
     55000   520.54877     -123.17022      234.96238      8.4905995      4590.7006      7923.3214      3213.2111    
     55100   347.8952      -122.59416      239.83034      8.3182615     -35662.601     -5137.604      -2950.902     
     55200   304.48986     -123.05768      234.69771      8.5001743      25252.053      956.47705      8701.0233    
     55300   265.09928     -123.04534      238.16275      8.3765049      5697.4914     -20607.436     -12071.445    
     55400   224.9689      -122.95691      236.20434      8.4459558     -5702.7587      9381.0359     -2267.8149    
     55500   362.04496     -123.05105      234.70575      8.4998834      6417.1008      17381.152      12118.174    
     55600   355.2681      -123.07777      238.61896      8.3604901     -16385.822     -21139.05      -10474.501    
     55700   234.99729     -123.07447      235.66018      8.4654585      1476.6742      11343.277      4961.7775    
     55800   293.58554     -123.23794      234.51524      8.506788       15584.622      2772.6098      3992.627     
     55900   259.43507     -123.02338      237.85575      8.3873165     -17660.092     -9456.433      -12224.675    
     56000   362.54583     -122.90961      236.29993      8.4425393     -6862.195      -3407.2193      8790.2787    
     56100   391.20326     -123.01196      237.88475      8.386294      -8428.0279     -9359.6933     -4788.3429    
     56200   256.18645     -122.99227      236.29999      8.4425373      3342.329       8574.2307      696.57396    
     56300   323.16597     -123.19242      234.20367      8.5181052      25027.834      7513.2542      11462.036    
     56400   248.05919     -123.0074       239.10582      8.3434669     -32792.879      6592.3205     -24082.306    
     56500   399.63238     -122.95804      235.19428      8.4822277      13745.368     -9859.1266      12473.081    
     56600   412.06769     -122.77905      237.67101      8.3938361     -2767.4622     -12102.801      7450.9358    
     56700   398.78017     -122.93498      237.54641      8.3982386     -6584.2629      7519.4136     -9548.9811    
     56800   359.85477     -123.08816      235.53526      8.4699481     -3743.5786      6630.8695      103.37599    
     56900   258.11175     -123.05016      239.17463      8.3410664      2399.1676     -25748.143     -27603.128    
     57000   186.33333     -122.95787      234.13062      8.5207626      12780.88       11419.61       34613.634    
     57100   426.80888     -123.17304      235.14554      8.4839861      1088.3343      13466.164      2262.1286    
     57200   240.86771     -122.71592      238.7157       8.357102      -17730.077     -5837.3817     -24736.017    
     57300   402.3273      -123.05861      233.62636      8.539154       25673.299      8284.4742      24810.323    
     57400   267.91979     -123.18906      237.81008      8.3889271     -8445.9892      62.921188     -13308.121    
     57500   216.31823     -123.16184      234.75869      8.4979662     -6191.5508     -1673.2958      16101.325    
     57600   212.84047     -123.0102       235.81379      8.4599441      11614.673      5987.5358      706.68855    
     57700   378.39758     -123.09271      236.08599      8.4501901      11690.474     -12305.263     -7319.9704    
     57800   362.11988     -123.05462      239.08866      8.3440654     -25073.776     -20667.038     -15593.262    
     57900   402.2667      -123.14348      235.13285      8.4844439     -14662.914      21328.853      6996.5048    
     58000   229.89962     -123.07046      234.85943      8.4943214      26081.031      15572.6       -776.30752    
     58100   306.50358     -123.18928      238.55645      8.362681      -10357.305     -39144.922     -9639.4948    
     58200   302.30743     -123.15006      236.77737      8.4255157     -20810.425      298.52604     -11013.17     
     58300   280.7872      -123.118        233.71452      8.5359329      13401.217      24988.911      12977.92     
     58400   243.44693     -122.96236      237.4836       8.4004597      5653.4705     -19241.499      1814.2591    
     58500   344.31931     -123.00373      238.00659      8.382001      -3322.0326     -6179.5822     -12175.056    
     58600   319.56747     -122.9716       235.00144      8.4891882     -7597.4739      20729.553      11488.675    
     58700   209.03728     -123.09732      235.72224      8.4632296      8526.1969      7413.0967      1303.7431    
     58800   176.66015     -123.0734       236.13637      8.4483871      17083.308     -5723.8416     -7455.4647    
     58900   238.69419     -123.08893      235.38211      8.4754593      8365.1954      1264.9691      12666.365    
     59000   242.33219     -122.89273      235.07664      8.4864727     -9526.2871      16104.209      2698.969     
     59100   304.77636     -123.01665      237.45066      8.4016252     -18279.985     -19514.492      14170.041    
     59200   335.40411     -123.0869       233.85436      8.5308287      32920.124      10863.017      1747.3268    
     59300   323.32302     -123.02         237.71512      8.3922783      4047.098      -6351.3952     -33645.038    
     59400   311.44678     -122.96085      237.13458      8.4128237     -22259.299      1362.1863      924.91406    
     59500   415.10599     -122.67995      235.41757      8.4741826     -5921.4832     -3233.5548      40594.394    
     59600   389.49479     -122.89625      238.99896      8.3471973      2006.8278     -13885.998     -19662.39     
     59700   343.72774     -123.04167      235.38221      8.4754554      3752.3641      20621.271     -23681.895    
     59800   258.03572     -123.01874      236.56213      8.4331817     -14842.363     -2163.328       6550.2591    
     59900   276.35919     -122.98941      236.07064      8.4507393      19877.435     -15721.18       11482.728    
     60000   322.67577     -123.2125       234.37994      8.5116988      12321.35       8762.2444      9181.2982    
     60100   278.18315     -123.16281      237.91304      8.3852968     -30348.677     -803.02702     -22905.767    
     60200   291.09057     -123.24622      235.46815      8.4723621      5661.681       2343.2913      867.16778    
     60300   259.65389     -122.97858      234.58959      8.5040922      24226.917      4753.0614      30618.81     
     60400   354.43637     -122.97601      238.52532      8.3637723     -6562.519      -26007.029     -17770.629    
     60500   454.56769     -123.05954      238.65004      8.3594014     -27389.151      2220.4768     -33693.227    
     60600   324.16175     -123.06714      233.8616       8.5305646      10570.433      22902.017      15229.205    
     60700   241.84576     -123.00012      235.59026      8.4679707      17362.898     -2710.1499      18869.867    
     60800   310.56366     -123.13121      237.43327      8.4022408     -2071.2632     -8487.9886     -15162.047    
     60900   308.72511     -123.10312      236.93507      8.419908      -16882.869      2898.1402     -13405.735    
     61000   269.78425     -123.05191      235.48733      8.4716721     -8044.4853      14586.215      8519.4282    
     61100   276.41797     -123.01937      235.11559      8.4850668      24436.775     -11826.202      10082.226    
     61200   361.05433     -123.10279      238.28505      8.3722057     -4604.9104     -19019.741     -12106.169    
     61300   395.21386     -122.96934      235.28095      8.4791031     -8501.6615      33747.968     -12770.883    
     61400   281.42774     -122.84811      236.48532      8.4359208     -3560.6199     -12111.848      14191.618    
     61500   274.43908     -123.0787       238.45334      8.3662969     -6386.3933     -17560.667     -22150.034    
     61600   234.45698     -123.16691      233.59982      8.5401241      10586.958      12035.628      27855.954    
     61700   201.29129     -123.08083      234.86869      8.4939862     -2370.4911      17218.288      2187.956     
     61800   304.5095      -123.08934      238.48948      8.3650293     -1736.1932     -12372.816     -15567.095    
     61900   296.43439     -123.02753      234.72837      8.4990642      29146.128     -5633.7097      9478.8814    
     62000   369.59242     -123.06066      237.41009      8.4030608     -27971.268     -4732.2877      1641.5254    
     62100   217.4996      -122.98665      235.10736      8.4853635     -18216.722      15705.135      10956.681    
     62200   268.82472     -123.14512      236.62831      8.4308233      34650.834     -16210.324     -17020.569    
[...]
     86600   323.16189     -123.02552      231.81861      8.6057432      22322.7        20363.909      38139.429    
     86700   347.44568     -123.24166      238.24108      8.3737508     -26154.244     -16709.112     -6053.5495    
     86800   246.18766     -123.13571      237.3221       8.4061763     -10295.726     -5545.294      -22236.094    
     86900   286.4021      -123.16425      233.06031      8.5598935      28731.63       17649.676      12099.844    
     87000   300.95653     -122.88978      239.84082      8.3178979     -19387.788     -16167.941     -9792.5805    
     87100   364.88664     -122.92453      234.9339       8.4916287      10975.503      7067.8582      18428.564    
     87200   280.47402     -122.9469       235.18231      8.4826594      14266.909      3777.4176      12458.737    
     87300   285.07342     -123.11308      238.75723      8.3556485     -19407.431     -13065.892     -34179.782    
     87400   363.53877     -123.29472      235.2347       8.4807704     -3744.784      -1876.3716      6466.3671    
     87500   307.61829     -123.12157      235.15565      8.4836212      13501.751      5674.9235      7841.0329    
     87600   338.25896     -123.12347      238.55592      8.3626995     -18301.263     -15167.774     -14264.186    
     87700   310.53954     -123.06104      237.30583      8.4067527     -2010.0339      5892.5331     -14211.203    
     87800   300.75319     -122.98158      234.10181      8.5218113      9569.5635      13547.069      26693.123    
     87900   287.67458     -122.97519      237.77068      8.3903175     -1250.4635     -13486.887     -6108.3076    
     88000   232.85268     -123.02392      234.3257       8.5136692      16076.933      17756.291      11880.634    
     88100   283.62052     -123.21484      234.81671      8.4958668      9058.7414      3532.9134      8655.7102    
     88200   213.63397     -123.03703      240.37261      8.2994959     -23669.998     -19642.843     -33220.288    
     88300   398.84582     -123.11805      232.72331      8.5722891      24082.989      19664.936      39484.983    
     88400   431.85512     -123.08096      238.53779      8.363335      -12596.829     -10901.588     -13552.224    
     88500   319.28825     -122.94671      240.90229      8.2812474     -25987.048     -19680.115     -40448.675    
     88600   288.3188      -123.01329      232.36695      8.5854353      28549.362      34985.902      31146.899    
     88700   363.22567     -123.20004      238.35267      8.3698307     -11691.028     -30348.287     -10440.397    
     88800   199.6333      -122.92906      236.74016      8.4268399     -13856.275     -6151.1557     -5256.8349    
     88900   292.6413      -123.02926      233.50839      8.5434681      10913.584      19082.079      30347.015    
     89000   321.68598     -123.0716       237.12586      8.4131334      2381.1928      4623.4909     -10752.741    
     89100   249.9711      -122.98556      237.13769      8.4127137     -3139.51       -6649.7755     -18697.539    
     89200   252.87966     -123.1462       236.0959       8.4498353      759.19877      1120.7844      2948.5707    
     89300   204.50014     -123.1243       233.63184      8.5389537      17098.644      16600.924      21783.204    
     89400   320.96905     -123.2107       238.30661      8.3714482     -10729.323     -26431.571     -23051.082    
     89500   284.77986     -122.91688      236.79363      8.424937      -24243.984      4934.4059     -6420.8       
     89600   305.05214     -122.88343      233.86597      8.530405       21341.046      19133.905      30890.484    
     89700   266.89263     -122.84909      237.51939      8.3991941      23600.219     -12288.628     -7132.8008    
     89800   265.20376     -123.27467      237.60632      8.3961213     -23151.765     -13299.417     -15998.349    
     89900   171.87879     -123.01239      234.66064      8.5015171     -11319.21       27586.144      8431.6224    
     90000   328.62656     -123.13875      232.90238      8.565698       34487.031      12489.133      28448.734    
     90100   221.40181     -122.74548      240.10877      8.3086156     -12582.136     -33125.46      -16661.45     
     90200   381.90673     -123.05336      237.80496      8.3891079     -15220.166      2280.2521     -14419.207    
     90300   186.15679     -122.67971      232.17899      8.5923859      32862.186      56210.931      22558.048    
     90400   268.60471     -123.24064      237.49156      8.4001785     -4650.4936     -26010.413     -3038.7436    
     90500   210.56165     -123.07273      236.55803      8.433328      -3528.1688     -28795.631     -3341.5286    
     90600   424.9951      -123.29408      236.17655      8.44695       -8721.1581      8616.2123     -7537.3743    
     90700   245.65921     -122.80999      233.63729      8.5387547      8235.6463      31648.31       21196.636    
     90800   361.67242     -123.06293      239.47915      8.33046       -13320.755     -24941.307     -11840.471    
     90900   260.67641     -123.10924      236.45224      8.437101       12944.832     -14360.624     -6013.2725    
     91000   228.87894     -123.20968      233.73404      8.5352202     -1778.7402      27707.149      11704.586    
     91100   310.23336     -123.25458      237.35815      8.4048997     -9893.6501     -10657.977     -16222.842    
     91200   313.64847     -123.10265      237.12783      8.4130635     -4776.9003     -20661.665     -5948.5957    
     91300   343.47271     -123.09209      234.8685       8.4939932     -175.49345      2171.4976      8589.6839    
     91400   355.78912     -123.03085      236.29725      8.4426351     -11892.352      3457.5637      1061.9627    
     91500   408.48084     -123.1799       237.80756      8.389016      -15396.432     -8107.7168     -7803.911     
     91600   248.0624      -123.05683      235.66845      8.4651614      12613.703     -1303.0443     -12103.081    
     91700   309.6712      -123.25703      237.14461      8.412468      -5335.3995     -18092.153     -392.33996    
     91800   293.73201     -123.09477      234.29069      8.5149414      4575.1966      18983.613      12071.225    
     91900   378.97977     -123.00193      236.96407      8.4188774     -3591.814       7089.8065     -9218.77      
     92000   350.29063     -123.01535      236.85502      8.4227536      4292.6314     -13353.499     -7287.7385    
     92100   232.95097     -122.96414      236.58023      8.4325368      4147.2403     -4388.2838      4077.1984    
     92200   256.51402     -123.05203      234.2195       8.5175293     -801.30347      10363.561      26348.971    
     92300   203.17821     -122.89737      236.77304      8.4256697      2604.8512      10457.224     -17479.324    
     92400   343.04146     -123.01107      237.07598      8.4149033      16332.818     -6128.4596     -15575.014    
     92500   273.46014     -122.72157      235.03606      8.4879377      136.62671      9068.5273      26461.503    
     92600   372.12794     -122.87847      239.28072      8.3373681     -15926.677     -21109.098     -7387.8138    
     92700   235.03116     -123.02194      234.89014      8.4932106      11215.498      14630.244     -5595.4617    
     92800   298.67755     -123.2209       235.6681       8.4651738     -237.23056      12391.319     -2813.831     
     92900   230.61837     -123.03909      235.38904      8.4752096      449.17851     -1139.4027      18725.008    
     93000   357.86177     -123.07194      236.53999      8.4339711      4953.8996     -20077.021      4757.0524    
     93100   297.40127     -122.79069      239.6932       8.3230207     -17464.583      10734.142     -24314.213    
     93200   373.09415     -123.05669      231.10453      8.6323338      31014.361      30336.726      34458.586    
     93300   218.81601     -123.07566      240.63438      8.2904673     -26995.83      -38998.48      -17727.553    
     93400   185.67983     -123.08099      234.18031      8.5189549      19227.247      13060.849     -1173.7169    
     93500   369.73427     -123.19428      233.14466      8.5567966      7868.079       25509.765      11740.136    
     93600   289.76858     -122.9728       242.14585      8.2387183     -45448.791     -26136.003     -32542.233    
     93700   302.25025     -122.8819       231.19871      8.6288176      61935.851      12636.574      34196.607    
     93800   318.19285     -122.97018      238.42046      8.3674507     -12094.935     -17985.699      365.70402    
     93900   438.7249      -122.97931      236.80669      8.4244724     -38810.153      12132.992     -10887.246    
     94000   359.6296      -123.08635      235.32531      8.477505       6339.4733      3979.9047      3642.4209    
     94100   201.54321     -122.99255      236.35505      8.4405705      22030.544     -10924.976     -11917.745    
     94200   228.94413     -123.07532      237.18249      8.4111245     -11419.12      -3782.1657     -11021.245    
     94300   293.25594     -123.05523      235.31799      8.4777686     -5209.7896      4085.7488      12001.83     
     94400   364.097       -123.14818      233.63427      8.5388648      9149.0034      19140.217      16952.683    
     94500   346.76952     -123.09075      239.70933      8.3224608     -10904.846     -35211.794     -30656.125    
     94600   211.73446     -122.99077      236.06078      8.4510923     -910.86838      4808.1408      9837.0312    
     94700   287.23974     -123.28201      231.99025      8.5993765      29988.134      32918.982      27064.138    
     94800   220.3756      -123.16487      239.39936      8.3332364     -32195.323     -25034.477     -24491.318    
     94900   308.32229     -123.15322      235.87948      8.457588       1763.3558     -1281.0553      3486.5301    
     95000   333.22855     -123.00874      233.16152      8.556178       26503.991      26448.993      20466.061    
     95100   345.12975     -122.98408      241.60836      8.2570463     -25288.639     -32703.543     -32085.333    
     95200   293.37586     -123.00045      233.63004      8.5390196      3600.2328      11347.387      16798.987    
     95300   178.37627     -123.10363      234.72083      8.4993369      6086.4194      4045.9977      12249.224    
     95400   207.55311     -123.19635      238.21429      8.3746927     -11034.543     -11311.62      -26144.197    
     95500   255.22841     -123.15755      233.53141      8.5426259      23245.965      17252.518      8376.3789    
     95600   224.34723     -122.93995      236.14666      8.4480189     -11705.124      4626.9765      15990.908    
     95700   340.94293     -123.06957      236.35735      8.4404882     -2037.3847     -12346.86       7310.7347    
     95800   245.02472     -122.83529      235.50411      8.4710684      21264.851      8540.3835      1336.6371    
     95900   374.77939     -123.06823      236.29925      8.4425637     -6048.8319      4231.0076     -16889.683    
     96000   366.71554     -123.21334      239.38182      8.3338469     -26464.299     -31249.518     -15854.911    
     96100   211.21057     -123.10855      232.01097      8.5986083      24139.269      23926.075      37747.089    
     96200   208.31853     -123.10668      235.2813       8.4790907     -7425.8112      19603.432     -4927.0733    
     96300   341.9556      -123.06596      240.56016      8.2930251     -21503.858     -24088.182     -35619.539    
     96400   268.58894     -122.78283      231.51921      8.6168723      42470.811      23454.823      41379.721    
     96500   302.43308     -122.92786      238.86226      8.3519741     -11966.048     -23778.642     -14703.097    
     96600   370.50019     -123.1787       238.62729      8.3601983     -26210.179     -470.47303     -18220.779    
     96700   307.13524     -123.08666      230.16963      8.6673966      45317.678      45267.007      46293.375    
     96800   229.15573     -122.97532      241.59699      8.2574351     -31035.692     -36283.487     -28947.911    
     96900   251.05684     -122.99447      235.16079      8.4834357      2789.8171     -5731.189       10896.141    
     97000   285.55152     -122.98626      231.73185      8.6089652      25864.099      44079.089      19073.306    
     97100   284.61901     -122.85038      242.8272       8.2156014     -40991.499     -35324.661     -44868.744    
     97200   388.31176     -123.03491      234.30234      8.5145178      18756.806     -604.79651      23570.573    
     97300   431.93526     -123.09119      235.95539      8.4548671      4713.3011      6187.7029     -574.81185    
     97400   186.93332     -122.7566       241.9766       8.2444808     -46170.326     -12775.655     -28567.275    
     97500   329.3314      -123.09448      229.46447      8.694032       54524.301      45599.857      45871.114    
     97600   213.56515     -123.00144      240.81471      8.2842593     -21461.993     -28669.841     -25824.786    
     97700   284.2864      -123.03831      237.27899      8.4077039     -13706.08      -23077.434     -3538.4478    
     97800   325.44361     -122.78705      233.07757      8.5592596      21873.915      40369.327      24595.552    
     97900   452.10446     -123.03802      238.73787      8.3563259     -6378.8005     -10574.921     -17204.25     
     98000   363.10515     -123.18993      239.56033      8.3276368     -24855.056     -29050.446     -17968.209    
     98100   251.59628     -123.02355      230.99441      8.6364492      29392.753      34319.32       45722.455    
     98200   252.03838     -123.06561      237.15028      8.4122668     -8496.1439     -5244.7492     -8939.7565    
     98300   357.37151     -122.96925      241.51557      8.2602189     -22265.82      -27987.537     -52891.692    
     98400   463.38798     -123.12047      233.16695      8.5559786      25682.64       26842.783      19418.723    
     98500   319.09852     -122.82345      237.60642      8.3961176     -21570.915     -23558.192      28489.11     
     98600   278.42531     -123.22859      238.35042      8.3699097     -16346.57      -17263.614     -20960.708    
     98700   277.09417     -123.11119      232.56689      8.5780544      33155.509      39752.963     -7732.0667    
     98800   244.27726     -122.98222      240.32348      8.3011923     -26598.553     -20158.16      -18770.482    
     98900   509.98666     -123.21763      234.62988      8.5026317      3927.5428     -7173.8701      21810.146    
     99000   282.47371     -122.91749      237.70358      8.3926858     -2921.8057     -7618.8943      3974.0948    
     99100   210.72714     -122.9428       237.83894      8.3879094      2394.7842      3259.2562     -15895.943    
     99200   218.33208     -123.07419      232.92146      8.5649965      25176.122      29805.118      16810.332    
     99300   197.15624     -123.24329      237.32611      8.4060346     -15943.885     -20668.483     -2193.4148    
     99400   258.3774      -123.35373      234.17169      8.5192681      2618.0106      8690.0031      11386.952    
     99500   283.28157     -123.17476      235.93317      8.4556634      10395.285      2122.3478     -9750.8677    
     99600   331.17963     -123.11998      239.30618      8.3364813     -27890.716     -13083.775     -21443.823    
     99700   217.50572     -122.90233      232.19631      8.591745       25802.585      18663.753      43558.151    
     99800   315.21688     -123.12742      238.42853      8.3671675     -7652.5923     -21479.44      -11645.316    
     99900   317.40298     -122.90938      237.97557      8.3830935      5681.6827      7672.2163     -21346.952    
    100000   488.69117     -123.02014      232.51031      8.580142       23678.113      23872.326      29582.494    
Loop time of 277.776 on 1 procs for 100000 steps with 16 atoms

Performance: 31.104 ns/day, 0.772 hours/ns, 360.003 timesteps/s, 5.760 katom-step/s
100.0% CPU use with 1 MPI tasks x 1 OpenMP threads

MPI task timing breakdown:
Section |  min time  |  avg time  |  max time  |%varavg| %total
---------------------------------------------------------------
Pair    | 276.51     | 276.51     | 276.51     |   0.0 | 99.54
Neigh   | 0.029696   | 0.029696   | 0.029696   |   0.0 |  0.01
Comm    | 0.10054    | 0.10054    | 0.10054    |   0.0 |  0.04
Output  | 0.29468    | 0.29468    | 0.29468    |   0.0 |  0.11
Modify  | 0.81729    | 0.81729    | 0.81729    |   0.0 |  0.29
Other   |            | 0.02543    |            |       |  0.01

Nlocal:             16 ave          16 max          16 min
Histogram: 1 0 0 0 0 0 0 0 0 0
Nghost:            325 ave         325 max         325 min
Histogram: 1 0 0 0 0 0 0 0 0 0
Neighs:              0 ave           0 max           0 min
Histogram: 1 0 0 0 0 0 0 0 0 0
FullNghs:          576 ave         576 max         576 min
Histogram: 1 0 0 0 0 0 0 0 0 0

Total # of neighbors = 576
Ave neighs/atom = 36
Neighbor list builds = 826
Dangerous builds = 0
unfix __pylammps_internal_run_callback
undump 1
unfix 1
variable newlx equal f_avg[1]
variable newly equal f_avg[2]
variable newlz equal f_avg[3]
change_box all x final 0 ${newlx} y final 0 ${newly} z final 0 ${newlz} remap units box
change_box all x final 0 6.3517287856617 y final 0 ${newly} z final 0 ${newlz} remap units box
change_box all x final 0 6.3517287856617 y final 0 6.12270398741257 z final 0 ${newlz} remap units box
change_box all x final 0 6.3517287856617 y final 0 6.12270398741257 z final 0 6.07734353644874 remap units box
Changing box ...
  orthogonal box = (0 0.13651154 0.067136756) to (6.3517288 6.1194885 6.1888632)
  orthogonal box = (0 0 0.067136756) to (6.3517288 6.122704 6.1888632)
  orthogonal box = (0 0 0) to (6.3517288 6.122704 6.0773435)
unfix avg
write_data after_relax.data nocoeff
System init for write_data ...
dump 1 all custom 100 min_dump.cfg id type x y z v_sa_hydro v_sa_von
minimize 0.0 0.02 5000 10000
Switching to 'neigh_modify every 1 delay 0 check yes' setting during minimization
Per MPI rank memory allocation (min/avg/max) = 6.425 | 6.425 | 6.425 Mbytes
   Step          Temp          PotEng         Volume        Density          Pxx            Pyy            Pzz      
    100000   488.69117     -123.01012      236.3464       8.4408793     -1329.008      -14077.546      13168.544    
    100017   488.69117     -123.6365       236.3464       8.4408793      297.06851     -26178.962     -6300.3789    
Loop time of 0.154955 on 1 procs for 17 steps with 16 atoms

100.0% CPU use with 1 MPI tasks x 1 OpenMP threads

Minimization stats:
  Stopping criterion = force tolerance
  Energy initial, next-to-last, final = 
     -123.010124361913  -123.636453582363  -123.636501596178
  Force two-norm initial, final = 3.1320317 0.017501986
  Force max component initial, final = 1.1853067 0.0053901029
  Final line search alpha, max atom move = 1 0.0053901029
  Iterations, force evaluations = 17 33

MPI task timing breakdown:
Section |  min time  |  avg time  |  max time  |%varavg| %total
---------------------------------------------------------------
Pair    | 0.15199    | 0.15199    | 0.15199    |   0.0 | 98.09
Neigh   | 0          | 0          | 0          |   0.0 |  0.00
Comm    | 3.4949e-05 | 3.4949e-05 | 3.4949e-05 |   0.0 |  0.02
Output  | 0          | 0          | 0          |   0.0 |  0.00
Modify  | 0          | 0          | 0          |   0.0 |  0.00
Other   |            | 0.00293    |            |       |  1.89

Nlocal:             16 ave          16 max          16 min
Histogram: 1 0 0 0 0 0 0 0 0 0
Nghost:            325 ave         325 max         325 min
Histogram: 1 0 0 0 0 0 0 0 0 0
Neighs:              0 ave           0 max           0 min
Histogram: 1 0 0 0 0 0 0 0 0 0
FullNghs:          544 ave         544 max         544 min
Histogram: 1 0 0 0 0 0 0 0 0 0

Total # of neighbors = 544
Ave neighs/atom = 34
Neighbor list builds = 0
Dangerous builds = 0
undump 1
