ITEM: TIMESTEP
0
ITEM: NUMBER OF ATOMS
16
ITEM: BOX BOUNDS pp pp pp
-1.0918150142040143e-02 6.2669181501419970e+00
8.2451663724751517e-02 6.1735483362753145e+00
8.2451663724735086e-02 6.1735483362753323e+00
ITEM: ATOMS id type x y z v_sa_hydro v_sa_von
5 1 -0.0109182 0.0824517 3.128 2.6002 13.611
7 2 -0.0109182 3.128 3.128 12.6115 14.5087
9 4 1.54732 1.60468 1.60577 -22.988 8.43621
8 1 3.128 3.128 3.128 4.10644 13.8007
10 5 4.71083 1.60475 1.60571 -15.4351 11.7003
11 3 1.53462 4.64942 1.60381 1.32153 12.4285
6 2 3.128 6.17355 3.128 13.5757 13.506
12 3 4.72138 4.64936 1.60387 1.09571 12.9751
13 3 1.53462 1.60664 4.65213 1.14395 11.7837
14 3 4.72138 1.60658 4.65219 1.49177 12.4891
1 2 -0.0109182 6.17355 6.17355 12.6524 14.6368
3 2 -0.0109182 3.128 6.17355 13.0457 15.0349
15 5 1.54517 4.65125 4.65029 -15.3108 11.3291
2 1 3.128 6.17355 6.17355 4.23756 14.4272
4 1 3.128 3.128 6.17355 4.22139 13.1561
16 4 4.70868 4.65132 4.65023 -22.5092 9.11021
ITEM: TIMESTEP
1000
ITEM: NUMBER OF ATOMS
16
ITEM: BOX BOUNDS pp pp pp
-3.3388568158565057e-02 6.2893885681585342e+00
1.0884661399302065e-01 6.1471533860070515e+00
4.9243461116197373e-02 6.2067565388838624e+00
ITEM: ATOMS id type x y z v_sa_hydro v_sa_von
5 1 -0.0343855 6.11621 3.10901 -2.36604 8.34015
7 2 6.0681 3.24052 3.18245 7.66617 17.7899
9 4 1.52886 1.6506 1.83594 -16.6153 13.7251
8 1 3.2825 2.97054 3.26547 -1.88103 17.6581
10 5 4.6448 1.7331 1.37191 -3.87059 9.57334
11 3 1.64404 4.69463 1.51332 -0.112245 16.1262
6 2 3.19868 6.18832 3.29053 7.28535 9.80676
12 3 4.7619 4.79251 1.72332 4.40382 12.2841
13 3 1.32238 1.53296 4.81341 -0.741765 18.6577
14 3 4.71048 1.44361 4.47595 -2.22415 15.145
1 2 0.157806 6.07379 0.162712 9.27096 7.11255
3 2 0.153827 3.21958 0.283504 8.09035 15.7634
15 5 1.62769 4.62547 4.48776 -11.0011 12.9657
2 1 2.95787 0.140705 0.0322155 0.616725 7.32533
4 1 2.85079 2.90055 6.09667 -0.90822 15.1899
16 4 4.77517 4.56606 4.8289 -9.52805 8.40874
ITEM: TIMESTEP
2000
ITEM: NUMBER OF ATOMS
16
ITEM: BOX BOUNDS pp pp pp
3.7083811324042149e-02 6.2189161886759372e+00
1.5238356602191327e-01 6.1036164339781536e+00
-3.6668050839866240e-02 6.2926680508399375e+00
ITEM: ATOMS id type x y z v_sa_hydro v_sa_von
9 4 1.58128 1.68776 1.68557 -15.6536 16.0576
1 2 0.321318 5.92083 0.183527 3.67689 13.3989
10 5 4.67134 1.61726 1.37315 -12.0809 15.2294
11 3 1.68242 4.63788 1.49868 -1.21458 16.9491
3 2 0.0528392 3.29055 0.126649 7.30223 13.0113
5 1 6.10663 6.09045 3.17841 -1.23969 13.4719
7 2 5.94685 3.17135 3.00527 6.72875 12.8053
12 3 4.72904 4.71908 1.71673 -3.4941 15.7027
13 3 1.41989 1.69206 4.76126 4.34205 12.9744
2 1 2.91721 0.182257 6.18041 -0.681604 14.5292
4 1 3.05728 3.07729 6.23341 1.64582 14.0196
8 1 3.25096 3.05362 3.15456 0.329155 14.4322
14 3 4.68247 1.69201 4.71782 -0.339786 15.2996
15 5 1.58786 4.56623 4.58786 -11.0846 16.9576
6 2 3.30246 6.09429 3.22864 9.59327 9.54869
16 4 4.71101 4.65076 4.87919 -18.0832 16.8944
ITEM: TIMESTEP
3000
ITEM: NUMBER OF ATOMS
16
ITEM: BOX BOUNDS pp pp pp
-8.7894063691495550e-02 6.3438940636914811e+00
8.7711473924634298e-02 6.1682885260754272e+00
8.5497816262324111e-02 6.1705021837377334e+00
ITEM: ATOMS id type x y z v_sa_hydro v_sa_von
9 4 1.613 1.84785 1.63253 -11.9167 7.11644
10 5 4.78097 1.5275 1.69593 -7.13007 11.3085
1 2 0.0167856 0.266591 0.0498546 12.3635 8.17301
11 3 1.57977 4.69569 1.60095 -0.458519 23.3844
3 2 6.21038 3.26081 0.0915128 11.8084 7.96736
12 3 4.6745 4.59096 1.5398 1.49491 19.0054
8 1 3.32103 2.89027 3.32556 -2.88491 11.4259
5 1 0.0694489 5.9944 2.94759 -0.310977 14.5162
13 3 1.57157 1.59204 4.66802 5.19774 16.5306
2 1 3.02407 -0.0526513 0.31166 1.70684 6.45549
6 2 2.90783 6.29583 3.14333 6.54027 14.6643
7 2 6.17608 3.37155 2.88913 5.71246 11.6474
14 3 4.90677 1.59727 4.74358 4.09279 16.2694
4 1 3.27493 2.99988 6.1152 1.96555 10.3082
15 5 1.42733 4.52824 4.61595 -1.57747 7.80305
16 4 4.63678 4.81537 4.53556 -7.29644 13.2365
ITEM: TIMESTEP
4000
ITEM: NUMBER OF ATOMS
16
ITEM: BOX BOUNDS pp pp pp
-9.1401760323691850e-02 6.3474017603236614e+00
9.6627884514970397e-03 6.2463372115485516e+00
1.6748148101153815e-01 6.0885185189885256e+00
ITEM: ATOMS id type x y z v_sa_hydro v_sa_von
9 4 1.50672 1.89337 1.68349 -4.16063 8.89524
10 5 4.5839 1.27236 1.70101 -1.93877 14.3407
11 3 1.52212 4.79591 1.59218 -5.02828 22.2672
5 1 0.0438792 -0.0233517 2.90514 -1.15856 11.2604
12 3 4.73464 4.74302 1.58191 -4.26955 23.0633
7 2 6.11941 3.40487 3.05059 3.84858 9.93189
4 1 3.43192 3.13371 6.0106 5.85378 8.61062
1 2 0.0577213 0.0871574 0.197361 9.85198 12.6516
13 3 1.70456 1.4796 4.65038 5.52914 16.9569
6 2 2.91049 6.04609 3.07293 7.33307 8.4096
14 3 5.22187 1.77572 4.53659 8.06797 17.6646
2 1 2.87743 6.21687 0.199058 -0.246732 7.42479
15 5 1.41098 4.50227 4.62839 -2.83771 11.6444
3 2 6.31726 3.16683 0.314237 6.4268 14.4873
8 1 3.44029 3.2457 3.15898 3.07964 11.1636
16 4 4.79664 4.99252 4.63284 -10.1976 13.5968
ITEM: TIMESTEP
5000
ITEM: NUMBER OF ATOMS
16
ITEM: BOX BOUNDS pp pp pp
-7.3327809965897828e-02 6.3293278099658750e+00
3.6870777477931327e-02 6.2191292225221222e+00
1.1198122958081802e-01 6.1440187704192581e+00
ITEM: ATOMS id type x y z v_sa_hydro v_sa_von
9 4 1.597 1.76563 1.58074 -9.05791 6.75083
1 2 0.240954 0.0855947 0.189444 9.75418 11.5272
2 1 2.96755 6.14615 0.159202 2.54744 15.7499
10 5 4.78012 1.46198 1.64489 -0.921445 6.18638
3 2 6.0381 3.22173 0.152436 10.1289 12.1154
11 3 1.33832 4.64869 1.61267 1.10297 18.088
5 1 0.206819 0.0794967 3.2213 -0.540016 10.8886
6 2 2.90693 6.08164 3.05961 9.5174 14.4103
12 3 4.65633 4.67746 1.61606 1.25179 17.0802
7 2 6.10921 3.27229 3.02344 10.9599 7.36125
13 3 1.52694 1.43987 4.57865 4.0126 19.8841
14 3 4.83058 1.76863 4.67108 3.76237 17.8013
15 5 1.48514 4.45659 4.62873 -3.06209 6.90116
4 1 3.41523 3.12342 0.114038 2.1134 10.3496
8 1 3.23568 3.13962 3.13189 3.49623 10.2664
16 4 4.66377 5.05727 4.59969 -6.5092 8.25783
ITEM: TIMESTEP
6000
ITEM: NUMBER OF ATOMS
16
ITEM: BOX BOUNDS pp pp pp
-5.4672239842357584e-02 6.3106722398423063e+00
2.6332845037380093e-02 6.2296671549626819e+00
1.0716769044592533e-01 6.1488323095541428e+00
ITEM: ATOMS id type x y z v_sa_hydro v_sa_von
9 4 1.52359 1.98173 1.59559 -13.0207 9.49809
10 5 4.77126 1.33254 1.62681 -6.42509 12.8427
2 1 2.95843 0.114214 0.166578 4.65667 6.08944
11 3 1.51877 4.82542 1.58303 2.06217 18.0179
3 2 6.18028 3.20174 6.14679 11.9544 14.6184
12 3 4.53981 4.48398 1.57499 7.88198 16.2512
7 2 6.19883 2.96551 3.27503 9.67061 10.2083
1 2 0.0172642 0.0508185 0.14981 11.6168 9.93053
5 1 0.129004 0.0444473 2.95918 0.794642 12.243
6 2 2.9894 0.249783 3.25247 11.064 8.90848
13 3 1.41235 1.56818 4.598 2.39816 14.3207
14 3 4.68687 1.63606 4.64963 -0.510555 14.5668
15 5 1.58502 4.59036 4.60404 -2.51501 9.71841
4 1 3.2092 3.12043 6.08199 0.644494 9.03529
8 1 3.22924 3.0101 3.25957 -0.321908 9.47748
16 4 4.79516 4.83485 4.59254 -5.46667 6.63148
ITEM: TIMESTEP
7000
ITEM: NUMBER OF ATOMS
16
ITEM: BOX BOUNDS pp pp pp
-5.5023892655827744e-02 6.3110238926557853e+00
5.9376734550075749e-02 6.1966232654500013e+00
1.0492289800172694e-01 6.1510771019983306e+00
ITEM: ATOMS id type x y z v_sa_hydro v_sa_von
9 4 1.54238 1.92075 1.55504 -9.42742 8.94238
10 5 4.73452 1.34211 1.63082 -10.248 10.9575
2 1 3.00635 6.29471 6.03193 3.74175 12.5681
11 3 1.44039 4.87054 1.60312 4.95444 15.04
12 3 4.86968 4.41155 1.74015 1.17722 18.82
7 2 6.18291 2.97186 3.22314 6.54772 9.4836
5 1 0.0468171 0.198764 3.07004 -2.03262 10.7076
6 2 2.90886 6.19207 3.07224 12.9184 7.88909
13 3 1.488 1.63619 4.59081 -1.11984 13.6095
14 3 4.84724 1.56118 4.69269 -7.04575 17.7779
4 1 3.31637 3.14903 6.07638 2.67266 16.1939
8 1 3.39637 3.13487 3.181 3.66412 10.5835
1 2 -0.00358075 0.286594 5.9915 4.04283 10.7762
15 5 1.4571 4.55673 4.62522 -2.73321 9.50374
3 2 6.13576 3.14294 0.151388 4.94546 17.4424
16 4 4.79283 4.82776 4.8162 -15.7987 14.8019
ITEM: TIMESTEP
8000
ITEM: NUMBER OF ATOMS
16
ITEM: BOX BOUNDS pp pp pp
-9.7316486766503729e-02 6.3533164867664897e+00
7.7521742910634295e-02 6.1784782570894468e+00
7.5357857967711439e-02 6.1806421420323190e+00
ITEM: ATOMS id type x y z v_sa_hydro v_sa_von
9 4 1.53983 1.50859 1.83526 -8.76217 5.74305
1 2 0.0977381 6.32814 -0.0117776 8.00914 10.4409
10 5 4.77664 1.55415 1.45634 0.776282 8.48551
4 1 2.90659 3.2663 0.0457358 4.03975 9.85682
11 3 1.26284 4.51171 1.49709 7.5906 16.5226
12 3 4.61389 4.59969 1.80442 3.60725 16.3137
2 1 3.02423 6.10729 0.143292 2.80242 13.095
5 1 6.11114 0.19334 3.16215 1.04694 10.9721
6 2 3.19996 6.10837 3.02203 8.32757 13.8324
13 3 1.48927 1.54266 4.76289 -0.498934 18.391
7 2 6.21337 3.09814 3.23069 13.9174 6.90798
14 3 4.67209 1.55271 4.60127 6.05868 17.9669
3 2 0.216692 3.03514 -0.0192198 8.36961 6.9182
15 5 1.56215 4.7624 4.52127 -5.40428 6.43703
8 1 3.25161 3.14467 3.14435 4.41743 8.86916
16 4 4.80341 4.68858 4.94717 -4.49016 11.9636
ITEM: TIMESTEP
9000
ITEM: NUMBER OF ATOMS
16
ITEM: BOX BOUNDS pp pp pp
-6.2241543875885874e-02 6.3182415438758550e+00
9.9922151278271087e-03 6.2460077848722708e+00
1.2904965960865766e-02 6.2430950340391700e+00
ITEM: ATOMS id type x y z v_sa_hydro v_sa_von
9 4 1.48222 1.58873 1.42539 -8.527 14.2594
3 2 6.07716 3.41405 0.0956502 9.93806 8.86299
10 5 4.73433 1.53244 1.69974 -0.410091 13.8585
7 2 6.40153 2.95712 3.08206 10.9748 10.5379
4 1 3.13692 3.39769 6.32048 5.77899 6.87213
11 3 1.51002 4.66868 1.67394 5.93937 12.6938
2 1 3.27532 6.14787 0.208388 7.78752 8.98857
12 3 4.83464 4.63131 1.5851 5.40359 10.2905
5 1 0.0758835 0.177507 3.00061 1.52045 11.6054
1 2 6.35107 6.18668 0.0838812 14.2342 9.83853
13 3 1.64002 1.51543 4.55835 12.1327 10.3185
6 2 3.01315 6.2044 3.0599 13.41 7.95539
14 3 4.95747 1.648 4.79833 14.7334 9.79935
15 5 1.4731 4.57754 4.65495 1.97339 10.2156
8 1 2.98662 3.17457 2.96582 4.23057 9.54922
16 4 4.6996 4.72116 4.56819 -1.15711 7.60073
ITEM: TIMESTEP
10000
ITEM: NUMBER OF ATOMS
16
ITEM: BOX BOUNDS pp pp pp
-1.0284265048292474e-01 6.3588426504829254e+00
9.3264582046466593e-02 6.1627354179536411e+00
6.6635630399483503e-02 6.1893643696005602e+00
ITEM: ATOMS id type x y z v_sa_hydro v_sa_von
9 4 1.48348 1.60954 1.46032 -15.8411 6.87929
7 2 0.118375 3.1346 3.13709 10.8848 12.8286
5 1 0.136632 0.111745 3.14156 1.7178 10.5652
8 1 2.97411 3.07928 3.18257 6.16544 11.0128
10 5 4.78534 1.58624 1.64625 -4.8426 5.13354
11 3 1.37497 4.65052 1.69894 3.9126 17.2414
1 2 6.2373 0.151715 6.14904 9.24948 9.21792
6 2 2.90984 6.25661 2.96465 12.0304 12.9815
3 2 6.02442 3.07887 6.16908 7.86074 13.3959
4 1 3.17196 3.1017 6.14723 4.99515 12.2346
2 1 3.25064 6.23777 0.0230401 4.48887 8.84779
12 3 4.8311 4.70141 1.47671 5.9784 13.8421
13 3 1.49568 1.64151 4.71005 2.55749 17.583
14 3 4.83756 1.53219 4.7102 3.42741 15.6443
15 5 1.52467 4.66499 4.82461 -2.78033 10.2615
16 4 4.78284 4.56581 4.48138 -5.64696 4.52185
ITEM: TIMESTEP
11000
ITEM: NUMBER OF ATOMS
16
ITEM: BOX BOUNDS pp pp pp
-1.9391521507202913e-02 6.2753915215072071e+00
3.2074115799378244e-02 6.2239258842007121e+00
4.9918288702304636e-02 6.2060817112977382e+00
ITEM: ATOMS id type x y z v_sa_hydro v_sa_von
9 4 1.65736 1.54126 1.53681 -16.4373 7.19817
10 5 4.73627 1.52296 1.68364 -1.66548 15.8192
5 1 0.0920444 6.36284 3.1346 0.302079 13.402
8 1 2.77176 3.1549 3.19946 0.31763 13.8202
11 3 1.40439 4.61529 1.70932 5.85315 10.8796
1 2 6.20098 6.24218 -0.0257998 10.9789 8.85972
3 2 6.17758 2.96731 6.03774 11.9995 2.25344
4 1 3.19412 3.07893 -0.128445 1.86395 3.22399
12 3 4.80824 4.4923 1.27228 7.68402 11.5564
7 2 0.235552 3.13906 3.09219 8.93204 14.9686
13 3 1.52376 1.54947 4.71676 -1.61581 13.7894
2 1 3.3051 6.19362 0.128351 0.431464 7.66541
14 3 4.59413 1.53114 4.835 1.01328 11.8812
6 2 2.94795 6.32755 3.21636 9.03382 15.6303
15 5 1.5483 4.77183 4.80015 -9.33606 10.5645
16 4 4.70186 4.77108 4.40008 -4.67982 10.0663
ITEM: TIMESTEP
12000
ITEM: NUMBER OF ATOMS
16
ITEM: BOX BOUNDS pp pp pp
-1.8349399306062608e-02 6.2743493993060540e+00
4.6816125604538072e-02 6.2091838743955474e+00
7.3928766986976147e-02 6.1820712330130512e+00
ITEM: ATOMS id type x y z v_sa_hydro v_sa_von
9 4 1.49802 1.65382 1.50737 -22.8104 10.7871
5 1 0.148447 6.02613 2.91039 -7.09207 13.7785
7 2 0.168416 3.34005 2.93714 4.83293 15.2975
10 5 4.78646 1.52181 1.80741 -5.51132 16.1913
11 3 1.73223 4.77359 1.61936 1.49496 17.7954
12 3 4.82644 4.64713 1.49509 2.17212 14.3054
2 1 3.18006 0.116012 6.16065 5.60211 8.22178
8 1 2.95595 3.02696 3.05752 0.839915 15.8076
13 3 1.44871 1.50361 4.58833 1.39972 14.4998
6 2 2.82659 0.311809 3.30524 6.10895 9.02224
1 2 6.12341 6.20408 0.0961561 9.73612 11.796
3 2 6.16603 3.17388 0.0677307 9.34679 12.0172
4 1 3.17482 3.08938 0.0649403 6.49118 8.64011
14 3 4.79705 1.58621 4.69321 5.24297 11.4394
15 5 1.48215 4.58536 4.70628 -9.59466 11.635
16 4 4.76117 4.72274 4.50869 -6.89364 11.6397
ITEM: TIMESTEP
13000
ITEM: NUMBER OF ATOMS
16
ITEM: BOX BOUNDS pp pp pp
-6.4984201565422950e-02 6.3209842015654338e+00
1.0451636787599528e-01 6.1514836321240853e+00
9.8833905119843024e-02 6.1571660948801972e+00
ITEM: ATOMS id type x y z v_sa_hydro v_sa_von
9 4 1.52027 1.42378 1.64339 -17.126 5.76291
10 5 4.85124 1.72122 1.54352 -5.38285 11.3053
2 1 3.29659 6.11178 0.22169 1.18979 13.8508
5 1 6.21237 6.11459 3.14204 -0.324235 14.85
7 2 0.159112 3.17255 3.18502 3.65522 10.5165
11 3 1.36064 4.45159 1.64928 0.24869 20.2465
12 3 4.6434 4.67683 1.70232 1.19127 17.7677
8 1 3.0086 3.04948 3.12098 1.83127 10.9456
13 3 1.47563 1.63522 4.60232 -4.34897 20.6649
6 2 3.26247 0.23386 3.10947 9.70268 9.28365
3 2 0.227299 2.98971 5.83773 1.86018 12.517
14 3 4.65024 1.62144 4.60675 2.23782 16.6043
15 5 1.47444 4.76848 4.68037 -14.1926 13.4142
1 2 6.1332 0.00158002 0.144797 8.50075 16.5271
4 1 2.87511 3.233 0.153064 0.63095 13.2726
16 4 4.70167 4.5173 4.68326 -13.7326 9.36059
ITEM: TIMESTEP
14000
ITEM: NUMBER OF ATOMS
16
ITEM: BOX BOUNDS pp pp pp
6.3308145346465672e-03 6.2496691854653665e+00
1.6064711825813038e-02 6.2399352881742818e+00
4.4411234159263735e-02 6.2115887658407889e+00
ITEM: ATOMS id type x y z v_sa_hydro v_sa_von
9 4 1.50379 1.67841 1.58589 -11.1204 9.65384
10 5 4.61583 1.4267 1.60204 -2.53724 16.9462
11 3 1.65186 4.72585 1.67855 1.80408 12.3733
5 1 0.078568 6.19317 2.86099 -1.76234 14.022
1 2 0.0149836 6.13595 0.257279 8.22003 12.2903
3 2 0.0613842 3.33599 0.156053 10.0493 10.8409
12 3 4.83151 4.54692 1.49357 1.54957 11.8027
13 3 1.56218 1.52698 4.81088 8.74909 9.50061
6 2 2.93783 0.0674083 3.20786 9.12392 14.6231
7 2 6.04371 3.09762 3.21241 10.0965 7.96565
8 1 3.18252 3.01244 3.19993 3.47619 12.0108
14 3 4.85021 1.77629 4.72839 7.79734 9.90678
2 1 2.99819 6.1613 6.14557 1.90446 13.0542
15 5 1.64384 4.60653 4.55953 -12.6596 16.7501
4 1 3.22061 3.39924 6.13035 1.50927 9.99847
16 4 4.70082 4.87965 4.65473 -12.5733 16.6246
ITEM: TIMESTEP
15000
ITEM: NUMBER OF ATOMS
16
ITEM: BOX BOUNDS pp pp pp
-1.0157655463523252e-01 6.3575765546352532e+00
7.9622574019219350e-02 6.1763774259808608e+00
1.3020066132118302e-01 6.1257993386788536e+00
ITEM: ATOMS id type x y z v_sa_hydro v_sa_von
9 4 1.48888 1.86489 1.58825 -18.9259 11.6695
10 5 4.70647 1.40264 1.54778 -7.04107 12.7631
11 3 1.65193 4.81254 1.68929 -1.39779 20.158
5 1 -0.00632986 0.0201987 3.02545 0.723637 7.59021
1 2 0.215895 6.32334 6.16816 3.76285 13.1674
3 2 6.23324 3.08755 0.140656 7.03791 12.0918
12 3 4.73612 4.50535 1.62766 1.97097 17.0623
13 3 1.4218 1.3884 4.55543 -1.46958 19.2504
6 2 3.07336 6.29708 3.14845 11.3981 6.76404
7 2 6.19451 3.13364 3.03551 11.7032 9.31139
8 1 3.06409 3.17941 3.21885 4.32405 9.62247
14 3 4.83169 1.79966 4.69381 1.71454 16.5115
2 1 2.97725 0.0293278 0.0897168 -0.859033 14.2526
15 5 1.49415 4.54037 4.69649 -8.12743 12.2991
4 1 3.23943 3.09626 6.2002 0.408492 11.8536
16 4 4.82852 4.91417 4.66039 -6.92908 10.9551
ITEM: TIMESTEP
16000
ITEM: NUMBER OF ATOMS
16
ITEM: BOX BOUNDS pp pp pp
2.9523033304097446e-02 6.2264769666959001e+00
1.3800499651251519e-01 6.1179950034875770e+00
-7.0334989842717022e-02 6.3263349898427492e+00
ITEM: ATOMS id type x y z v_sa_hydro v_sa_von
9 4 1.63914 1.68682 1.68461 -15.8069 14.805
10 5 4.69629 1.60494 1.56694 -13.8671 17.6539
4 1 3.17923 2.99078 6.17932 4.79245 7.74991
11 3 1.58765 4.66422 1.43358 4.24662 14.095
5 1 -0.0161164 0.0824545 3.13553 1.99347 14.3187
12 3 4.76216 4.53859 1.48801 4.85284 12.1307
7 2 6.10911 3.1652 3.24132 12.1646 10.9563
1 2 0.0161021 0.154797 6.35095 13.6223 11.1795
13 3 1.62788 1.63909 4.71294 5.96828 11.8809
6 2 3.14597 5.91916 2.89853 9.09916 13.0226
2 1 3.13114 0.224845 0.0139453 1.99103 19.0614
8 1 3.19329 3.10769 3.08258 1.8905 16.5507
14 3 4.76989 1.64448 4.6995 3.84494 17.2193
15 5 1.48816 4.63834 4.68674 -8.31358 17.4393
3 2 0.167902 3.13496 6.34427 14.5748 8.41475
16 4 4.56911 4.77781 4.78161 -16.9996 15.7109
ITEM: TIMESTEP
17000
ITEM: NUMBER OF ATOMS
16
ITEM: BOX BOUNDS pp pp pp
-9.5076620236874909e-02 6.3510766202368796e+00
3.0839074530375044e-02 6.2251609254697104e+00
1.4898419071610114e-01 6.1070158092839550e+00
ITEM: ATOMS id type x y z v_sa_hydro v_sa_von
9 4 1.42601 1.66953 1.53972 -12.7847 3.74668
10 5 4.77194 1.40396 1.71072 -3.0502 9.69737
1 2 -0.0688487 0.162849 0.0337773 10.4191 15.1814
11 3 1.32786 4.68686 1.61334 2.58202 17.5522
8 1 3.25834 3.09512 3.08103 2.99581 8.79828
5 1 0.184224 0.0344053 3.3022 0.110844 12.5059
12 3 4.75021 4.71211 1.55742 1.66784 16.2425
6 2 2.91077 0.179291 3.15288 6.84083 15.2429
13 3 1.72635 1.54205 4.57329 0.501654 19.9351
4 1 3.24149 3.2496 0.358523 1.77712 7.93407
7 2 6.18624 3.17866 3.0023 12.3421 9.69909
2 1 2.89553 6.0571 0.269433 0.241899 11.1084
14 3 4.75403 1.77428 4.71224 4.46402 16.7669
15 5 1.59033 4.52538 4.61118 -8.75129 7.18458
3 2 6.26828 3.19469 5.9536 11.4142 10.5231
16 4 4.69403 4.91069 4.56106 -6.91695 10.8988
ITEM: TIMESTEP
18000
ITEM: NUMBER OF ATOMS
16
ITEM: BOX BOUNDS pp pp pp
-4.8248143636612006e-02 6.3042481436366158e+00
1.2912244441509113e-01 6.1268775555850024e+00
-4.9256509810371440e-03 6.2609256509810907e+00
ITEM: ATOMS id type x y z v_sa_hydro v_sa_von
9 4 1.57857 1.55872 1.69968 -14.4004 10.2702
6 2 3.26321 6.13532 3.31609 11.1829 10.8167
10 5 4.74061 1.7294 1.44122 -5.09071 13.2777
8 1 3.22231 3.11209 3.14739 3.45697 15.1411
11 3 1.46883 4.60884 1.43365 3.2145 18.4674
2 1 2.91316 0.331601 6.20562 0.441331 9.08762
12 3 4.85369 4.555 1.49631 5.81743 14.4116
4 1 2.9934 3.27725 0.293443 -2.54681 14.4543
7 2 6.23338 3.18819 3.23984 9.98597 14.5062
1 2 0.0611344 6.14941 6.24067 11.6805 10.2337
5 1 6.11019 0.167694 3.17048 3.61984 11.3348
13 3 1.6168 1.68627 4.75604 0.20843 18.328
14 3 4.70114 1.50501 4.69188 2.60883 16.4736
15 5 1.45716 4.60318 4.55012 -7.02964 10.7129
3 2 0.219574 2.88516 -0.0791206 6.22611 11.7879
16 4 4.7277 4.48687 4.81559 -10.1479 9.31057
ITEM: TIMESTEP
19000
ITEM: NUMBER OF ATOMS
16
ITEM: BOX BOUNDS pp pp pp
-1.0591983012621231e-01 6.3619198301262205e+00
1.0129357757152091e-01 6.1547064224285819e+00
7.6104014992544489e-02 6.1798959850074926e+00
ITEM: ATOMS id type x y z v_sa_hydro v_sa_von
9 4 1.58803 1.53215 1.89178 -9.85565 9.70268
1 2 0.130107 0.308462 0.00395318 8.81001 12.4758
10 5 4.79424 1.60327 1.40204 -1.35805 5.30552
5 1 6.17609 6.14179 3.0525 1.39353 12.7657
11 3 1.32682 4.60144 1.56284 -1.33739 18.1995
4 1 2.87398 3.10037 0.121713 4.39164 8.70879
12 3 4.79049 4.5313 1.6118 1.98379 14.7935
2 1 2.98707 -0.055824 6.32264 5.85012 11.7299
13 3 1.34516 1.73629 4.73852 2.6744 21.4054
3 2 0.169405 3.28863 6.29171 5.31337 11.0348
6 2 3.33475 0.105018 3.17397 9.97396 12.4592
7 2 6.23685 3.13804 3.10356 10.4551 9.73847
14 3 4.60529 1.54894 4.43275 3.32799 20.5713
15 5 1.43258 4.69014 4.57603 -5.86534 3.74181
8 1 3.29998 3.15026 3.22592 2.68835 10.4414
16 4 4.83806 4.56635 4.82003 -6.88201 7.9346
ITEM: TIMESTEP
20000
ITEM: NUMBER OF ATOMS
16
ITEM: BOX BOUNDS pp pp pp
-3.1503273110576213e-02 6.2875032731105609e+00
7.2475253082369129e-02 6.1835247469177004e+00
4.5870286869841070e-02 6.2101297131302147e+00
ITEM: ATOMS id type x y z v_sa_hydro v_sa_von
9 4 1.58793 1.56589 1.91149 -6.88034 13.2231
1 2 0.136444 6.04165 0.195868 8.13091 7.68271
3 2 0.0696797 3.28576 6.18093 10.09 7.57326
10 5 4.79814 1.56092 1.449 -4.33427 10.2184
7 2 6.17241 3.18203 3.29348 9.66295 10.8616
11 3 1.69174 4.61399 1.42639 5.52432 12.3062
2 1 2.93982 0.362637 6.25384 -1.65427 12.585
12 3 4.62027 4.56425 1.64133 0.499781 15.0316
8 1 3.35067 3.01709 3.18979 -0.216879 12.5607
13 3 1.37686 1.60811 4.83234 4.01098 15.2716
5 1 6.06299 5.92815 2.94943 -0.53329 11.4688
14 3 4.65875 1.64773 4.5916 2.49819 15.1684
4 1 2.99134 3.01952 6.09212 0.78074 6.92847
15 5 1.52856 4.77739 4.53594 -3.31023 11.5756
6 2 3.31775 0.0124292 3.08535 8.31263 15.8583
16 4 4.60408 4.68233 4.8511 -12.1618 8.54473
ITEM: TIMESTEP
21000
ITEM: NUMBER OF ATOMS
16
ITEM: BOX BOUNDS pp pp pp
-6.2585023950540997e-02 6.3185850239505141e+00
1.6922534036567338e-01 6.0867746596344086e+00
3.7970121505832566e-03 6.2522029878494703e+00
ITEM: ATOMS id type x y z v_sa_hydro v_sa_von
9 4 1.46356 1.60915 1.80931 -9.62979 9.00764
2 1 2.94749 6.04661 6.19292 1.74586 13.1564
10 5 4.82666 1.63369 1.33793 -5.41207 8.21151
1 2 0.117056 0.164731 6.23537 8.47106 14.7456
3 2 -0.00456358 3.04595 6.09323 7.53481 15.8283
11 3 1.47394 4.64355 1.60544 2.38143 18.6774
7 2 6.13356 3.07322 3.2219 7.9479 11.7869
12 3 4.89671 4.64265 1.72729 3.40625 15.3722
5 1 6.16764 0.287055 3.35966 -0.194252 10.9704
6 2 3.25734 0.223638 3.14091 12.346 8.11391
13 3 1.64594 1.72951 4.82224 0.688442 18.0661
4 1 2.89101 3.29596 0.172491 0.542766 11.6205
8 1 3.38584 3.06805 2.93599 1.3263 10.7163
14 3 4.62547 1.67022 4.67363 -1.90669 18.9741
15 5 1.48581 4.57 4.53187 -6.51671 10.7139
16 4 4.69596 4.59462 4.98488 -12.2439 14.5259
ITEM: TIMESTEP
22000
ITEM: NUMBER OF ATOMS
16
ITEM: BOX BOUNDS pp pp pp
-3.1457343661152048e-02 6.2874573436611083e+00
2.1259697830632085e-02 6.2347403021694454e+00
1.3026708461430214e-01 6.1257329153857274e+00
ITEM: ATOMS id type x y z v_sa_hydro v_sa_von
9 4 1.57128 1.49071 1.8036 -16.8731 13.7753
2 1 3.01008 6.35866 6.13607 1.03252 15.9014
10 5 4.73602 1.62722 1.5111 -12.655 13.1895
11 3 1.44422 4.68411 1.56881 1.99152 15.2669
4 1 2.92837 3.01789 0.0438037 2.56442 11.4396
12 3 4.73395 4.68995 1.776 1.79197 16.5897
8 1 3.27917 3.08166 3.05461 1.66313 10.2814
3 2 0.0446199 3.16207 6.34463 7.04564 12.779
13 3 1.2832 1.57803 4.74698 -0.800674 19.0129
7 2 6.13762 3.0422 3.24337 9.68274 8.62649
5 1 6.02042 0.13451 3.2664 -4.80202 8.74786
14 3 4.64235 1.52448 4.48724 -4.09769 17.8723
1 2 0.289083 -0.0435219 0.121928 4.85758 7.92435
15 5 1.61535 4.72847 4.42751 -3.23243 13.5933
6 2 3.30341 6.21878 3.01141 6.66858 12.0475
16 4 4.71848 4.62247 4.91016 -8.57757 8.25244
ITEM: TIMESTEP
23000
ITEM: NUMBER OF ATOMS
16
ITEM: BOX BOUNDS pp pp pp
-5.3150884691775868e-02 6.3091508846917286e+00
1.6396926782112953e-01 6.0920307321789462e+00
-1.6475458286660416e-02 6.2724754582866922e+00
ITEM: ATOMS id type x y z v_sa_hydro v_sa_von
9 4 1.52366 1.67306 1.8125 -8.65035 11.8594
4 1 2.99801 3.04059 6.1914 4.15655 15.8091
10 5 4.64033 1.72772 1.35653 -11.8124 14.0501
11 3 1.28911 4.62336 1.48549 0.60329 21.5484
3 2 0.126305 3.10831 0.0132893 6.35585 11.8789
12 3 4.56411 4.60941 1.56265 4.09196 17.6968
5 1 5.98536 0.295461 2.93528 -4.52409 15.688
2 1 2.91204 6.05465 6.38108 4.87384 9.17737
13 3 1.32193 1.6343 4.8014 5.39574 15.0128
1 2 0.0815473 6.0858 0.247327 4.99287 15.0658
8 1 3.38475 3.12342 3.25097 2.16601 13.8478
14 3 4.75869 1.50856 4.66424 -0.989426 18.8169
6 2 3.34165 0.150602 3.36238 8.96768 13.192
15 5 1.63345 4.52273 4.56956 -4.71216 12.8416
7 2 6.17328 3.2456 3.09889 8.17199 19.8515
16 4 5.01343 4.61341 4.79296 -12.9487 9.27751
ITEM: TIMESTEP
24000
ITEM: NUMBER OF ATOMS
16
ITEM: BOX BOUNDS pp pp pp
-8.7232229061090294e-02 6.3432322290610470e+00
7.2394156200257243e-02 6.1836058437998132e+00
1.0686850969710671e-01 6.1491314903029268e+00
ITEM: ATOMS id type x y z v_sa_hydro v_sa_von
9 4 1.44634 1.74557 1.71875 -15.721 7.79242
10 5 4.7182 1.53694 1.50343 -3.29531 5.26878
7 2 6.37976 2.92578 3.21398 8.62253 17.2084
4 1 3.04405 3.36944 0.221899 1.02628 8.76024
11 3 1.38648 4.54974 1.53849 1.08562 17.0688
3 2 -0.029143 3.05003 5.99961 9.3451 9.61746
2 1 3.03376 6.07313 0.346633 4.44813 9.1415
12 3 4.82016 4.67583 1.5461 4.87639 13.8463
6 2 3.03806 0.238088 3.30301 11.7116 10.1498
13 3 1.56237 1.57808 4.71498 2.21822 16.5163
1 2 -0.0832183 6.21127 6.03695 11.9987 9.83134
8 1 3.31348 3.17902 3.15551 2.8315 14.4533
14 3 4.7235 1.61074 4.63055 2.98521 17.8167
15 5 1.5454 4.62215 4.57421 -11.7369 13.0443
5 1 6.35651 0.0487029 3.25165 2.01135 15.5251
16 4 4.78618 4.70551 4.60413 -15.1987 13.7979
ITEM: TIMESTEP
25000
ITEM: NUMBER OF ATOMS
16
ITEM: BOX BOUNDS pp pp pp
-5.3368629482467789e-02 6.3093686294824058e+00
3.5245000011069560e-02 6.2207549999889906e+00
1.1222030892796120e-01 6.1437796910720515e+00
ITEM: ATOMS id type x y z v_sa_hydro v_sa_von
9 4 1.51757 1.45477 1.66856 -12.8662 5.93103
5 1 6.08563 -0.0840076 3.05511 2.47676 8.80849
10 5 4.76459 1.72405 1.49844 -6.32542 13.0911
11 3 1.53398 4.60445 1.65506 0.424962 16.7822
6 2 3.31096 0.104619 3.1929 9.57436 10.1375
1 2 -0.21175 0.027317 6.17043 12.7351 13.3693
7 2 -0.0147624 3.07069 3.13386 13.7178 8.50258
4 1 2.92184 3.13701 0.167008 -1.85005 19.8128
12 3 4.66362 4.63761 1.74715 0.908334 17.4637
8 1 2.95952 3.15156 3.05758 2.79396 8.52922
13 3 1.48219 1.56244 4.66707 5.39789 16.6595
3 2 0.246305 3.15961 0.136226 9.02334 18.3844
14 3 4.70428 1.45567 4.44827 4.05394 15.5784
2 1 3.23758 6.11829 0.184234 2.3722 14.3487
15 5 1.5951 4.8376 4.57693 -5.90708 7.59276
16 4 4.68275 4.43394 4.87014 -10.7015 14.055
ITEM: TIMESTEP
26000
ITEM: NUMBER OF ATOMS
16
ITEM: BOX BOUNDS pp pp pp
-3.5620158016524073e-02 6.2916201580164763e+00
7.6882922206597204e-02 6.1791170777934461e+00
6.5445955139381784e-02 6.1905540448606189e+00
ITEM: ATOMS id type x y z v_sa_hydro v_sa_von
9 4 1.52915 1.54829 1.52071 -18.824 13.9123
4 1 3.04477 3.00206 5.95161 1.58451 14.1002
8 1 3.05206 3.07906 3.21424 1.13571 15.7631
10 5 4.76295 1.72583 1.64581 -12.0649 11.812
2 1 3.28641 0.178842 6.18413 0.451337 11.5765
11 3 1.49531 4.69071 1.70454 4.32352 12.7294
7 2 0.0414534 2.9973 3.12111 10.5193 12.3992
3 2 -0.00305976 3.06426 6.16585 12.9198 14.8024
5 1 -0.00606344 0.146656 3.05072 -0.716956 10.0625
1 2 6.13908 6.06549 0.257792 6.53861 9.34458
12 3 4.79413 4.75049 1.5373 1.70828 13.3513
13 3 1.59623 1.65687 4.54498 -1.29196 17.5322
14 3 4.82323 1.39784 4.73059 3.14808 15.2617
15 5 1.49319 4.77537 4.72721 -5.85569 9.98729
6 2 3.14647 6.04841 3.06826 12.5506 10.2524
16 4 4.62053 4.52187 4.59033 -14.5075 10.072
ITEM: TIMESTEP
27000
ITEM: NUMBER OF ATOMS
16
ITEM: BOX BOUNDS pp pp pp
-2.6366591839638076e-02 6.2823665918395806e+00
3.7922049541079250e-02 6.2180779504589943e+00
8.1028542179911511e-02 6.1749714578200674e+00
ITEM: ATOMS id type x y z v_sa_hydro v_sa_von
9 4 1.43333 1.59957 1.8939 -10.9325 12.5813
8 1 3.31716 3.15721 3.19181 1.45406 16.0668
10 5 4.75866 1.62298 1.5268 -8.32484 11.4241
5 1 6.1377 0.00356121 3.16947 -1.0994 16.5507
11 3 1.26418 4.7 1.49193 5.20254 13.194
2 1 3.02274 6.17468 0.254025 5.97462 5.52969
1 2 0.123205 0.220451 -0.0182516 9.21999 7.60543
12 3 4.64335 4.71077 1.59903 1.81545 11.623
4 1 2.95123 3.05067 6.25363 4.99399 8.51291
7 2 6.12993 3.22898 3.06546 7.31162 20.2255
13 3 1.6721 1.47524 4.79575 0.24743 14.7334
3 2 0.137695 3.10649 6.09162 9.80383 12.2513
14 3 4.67228 1.50673 4.64492 3.3396 13.5827
15 5 1.5769 4.64618 4.45665 -6.08287 12.8127
6 2 3.26388 6.25346 3.24949 10.9582 9.56375
16 4 4.76439 4.58214 4.73532 -15.0047 8.81096
ITEM: TIMESTEP
28000
ITEM: NUMBER OF ATOMS
16
ITEM: BOX BOUNDS pp pp pp
-5.7889721138465244e-02 6.3138897211384144e+00
7.1008269000885527e-02 6.1849917309991849e+00
7.6947011426530487e-02 6.1790529885734475e+00
ITEM: ATOMS id type x y z v_sa_hydro v_sa_von
9 4 1.57125 1.68533 1.75693 -15.7452 6.959
4 1 3.23733 2.90466 -0.0611139 1.86679 12.4001
10 5 4.82721 1.42314 1.5216 -8.99529 16.3542
11 3 1.48973 4.68248 1.58689 6.51443 12.6861
2 1 2.93388 6.35876 6.18151 1.25259 14.1595
12 3 4.8016 4.56931 1.60342 4.45091 15.4301
7 2 6.16459 3.25898 3.20015 10.6107 9.40045
1 2 0.209904 0.203281 0.0982584 7.90725 13.4622
13 3 1.39874 1.58002 4.64422 0.286624 16.0849
3 2 -0.0167963 3.08345 0.116301 13.4479 10.1292
14 3 4.64833 1.70097 4.52881 -0.0322474 19.1352
6 2 3.11494 6.32138 3.29793 11.2167 11.8496
15 5 1.49328 4.6588 4.5949 -5.61204 6.88436
8 1 3.20384 3.19879 3.08516 2.5998 13.0951
5 1 6.18932 0.0335679 3.10837 0.870934 11.9288
16 4 4.6409 4.68137 4.78187 -11.5942 7.38961
ITEM: TIMESTEP
29000
ITEM: NUMBER OF ATOMS
16
ITEM: BOX BOUNDS pp pp pp
5.5805704472283502e-02 6.2001942955276652e+00
2.2029946306938442e-03 6.2537970053693606e+00
6.3627314989921580e-02 6.1923726850100547e+00
ITEM: ATOMS id type x y z v_sa_hydro v_sa_von
9 4 1.59768 1.60332 1.67521 -22.8628 15.7801
2 1 3.08288 0.327528 5.94412 -1.94904 6.98166
1 2 0.14542 6.2657 0.17491 8.96475 11.3909
3 2 6.22964 3.36321 0.231626 6.45774 13.4594
10 5 4.76976 1.63728 1.59495 -10.2136 19.841
11 3 1.66943 4.75283 1.49602 3.20974 9.78488
12 3 4.53321 4.62019 1.54509 7.56611 7.04667
8 1 3.06634 3.08741 3.26982 2.46204 16.0218
5 1 6.26737 6.04433 2.97766 1.21516 13.7861
13 3 1.43116 1.4925 4.7092 -0.113276 12.2865
6 2 3.06287 0.0545928 3.18505 13.1074 12.6172
4 1 3.05846 2.87487 6.08902 -1.45039 10.7666
14 3 4.66494 1.54528 4.67703 0.118468 10.8016
15 5 1.51977 4.62486 4.62224 -14.9198 19.9783
7 2 -0.00872427 3.05932 3.1509 7.41555 20.3087
16 4 4.78167 4.6591 4.70079 -14.8401 15.88
ITEM: TIMESTEP
30000
ITEM: NUMBER OF ATOMS
16
ITEM: BOX BOUNDS pp pp pp
-5.4625344053308655e-02 6.3106253440532516e+00
1.9846131230639807e-01 6.0575386876936452e+00
7.8295180487595317e-03 6.2481704819512123e+00
ITEM: ATOMS id type x y z v_sa_hydro v_sa_von
9 4 1.5755 1.68057 1.35531 -14.6515 5.36612
10 5 4.66297 1.60537 1.65816 -8.12153 9.78832
1 2 6.01469 0.230245 -0.0521699 5.63527 11.1155
3 2 6.12318 3.09731 0.0608549 9.83431 16.3772
11 3 1.4044 4.64479 1.7511 1.3151 22.2857
12 3 4.68459 4.66441 1.47737 0.727156 21.9978
5 1 0.301561 0.429752 3.26494 -7.65573 6.77395
7 2 0.11769 3.08529 3.22604 6.22569 17.783
8 1 2.88962 3.08129 3.21449 -0.96005 11.9703