ITEM: TIMESTEP
50000
ITEM: NUMBER OF ATOMS
16
ITEM: BOX BOUNDS pp pp pp
0.0000000000000000e+00 6.3518743416296601e+00
0.0000000000000000e+00 6.0905435473899301e+00
0.0000000000000000e+00 6.1113935271785103e+00
ITEM: ATOMS id type x y z v_sa_hydro v_sa_von
9 4 1.5522 1.47148 1.79086 -15.2936 11.4143
10 5 4.81925 1.53949 1.37481 -6.6659 16.5251
7 2 6.12095 2.97784 2.98418 10.3616 9.0908
3 2 0.128632 3.24798 0.104087 6.81314 8.43895
11 3 1.60745 4.54608 1.5354 -0.094425 17.1
1 2 0.174358 5.91144 0.182808 4.21831 9.59354
12 3 4.81722 4.5394 1.4299 0.0267454 18.2462
5 1 6.27369 5.82366 2.88793 -1.17575 11.3977
4 1 2.94176 2.89637 5.97387 -0.779547 11.407
13 3 1.5384 1.53836 4.70611 2.38428 18.5704
2 1 3.13508 0.240035 6.07399 -2.03568 14.8055
8 1 3.12772 3.03642 3.07543 4.50506 11.4975
14 3 4.76692 1.57018 4.58082 5.24808 14.9367
15 5 1.62709 4.57093 4.53665 -9.20267 11.8288
6 2 3.27227 6.04771 3.06783 11.8762 16.3193
16 4 4.75057 4.74814 4.75708 -12.5604 13.3392
ITEM: TIMESTEP
50013
ITEM: NUMBER OF ATOMS
16
ITEM: BOX BOUNDS pp pp pp
0.0000000000000000e+00 6.3518743416296601e+00
0.0000000000000000e+00 6.0905435473899301e+00
0.0000000000000000e+00 6.1113935271785103e+00
ITEM: ATOMS id type x y z v_sa_hydro v_sa_von
9 4 1.59542 1.50656 1.72459 -11.8569 7.06352
10 5 4.79135 1.51956 1.3697 -6.19625 8.67149
7 2 6.17561 3.03917 3.06426 11.4277 12.7056
3 2 0.196342 3.03687 0.0141363 9.80794 12.8286
11 3 1.50265 4.55279 1.45466 1.98786 15.415
1 2 0.189365 6.08461 0.0134514 10.1524 12.0917
12 3 4.7403 4.56404 1.61127 1.27983 15.6529
5 1 6.15128 6.08243 3.06446 1.21869 11.6855
4 1 2.98081 3.03409 6.11627 2.70669 11.1862
13 3 1.49734 1.5252 4.67008 1.37759 15.7651
2 1 2.98339 -0.00260445 6.11476 2.9489 12.7362
8 1 3.36887 3.04601 3.06372 2.42554 10.2896
14 3 4.73319 1.51224 4.51285 1.9362 15.6583
15 5 1.58631 4.56927 4.4243 -5.89142 8.2808
6 2 3.37155 6.0795 3.06333 11.0344 10.7899
16 4 4.78977 4.55579 4.77992 -11.8546 6.47031
