ITEM: TIMESTEP
100000
ITEM: NUMBER OF ATOMS
16
ITEM: BOX BOUNDS pp pp pp
0.0000000000000000e+00 6.3517287856616997e+00
0.0000000000000000e+00 6.1227039874125699e+00
0.0000000000000000e+00 6.0773435364487396e+00
ITEM: ATOMS id type x y z v_sa_hydro v_sa_von
9 4 1.6323 1.49526 1.71549 -19.12 14.3273
10 5 4.76017 1.508 1.3269 -3.08896 11.3753
8 1 3.19008 3.00978 2.94395 1.32492 16.1311
11 3 1.32865 4.6988 1.44498 6.0577 14.5692
4 1 2.97805 3.08671 0.239072 1.09272 15.6247
2 1 2.96231 6.0683 0.136621 -1.99299 14.0138
12 3 4.70141 4.52755 1.69525 1.67119 11.9081
1 2 0.176418 0.244273 5.83014 2.94141 10.1948
3 2 0.305921 2.94774 5.91283 5.97193 10.9581
13 3 1.5379 1.49406 4.61859 -5.87309 20.6147
5 1 6.17238 0.0477848 3.13583 0.603435 10.8763
14 3 4.71665 1.50173 4.59543 2.83431 16.5718
15 5 1.68362 4.64153 4.41963 -8.96626 7.67296
7 2 6.25926 3.06893 3.15607 13.1625 8.09033
6 2 3.33185 6.02682 3.04342 8.8702 12.1335
16 4 4.77736 4.58092 4.84822 -4.61596 9.47717
ITEM: TIMESTEP
100017
ITEM: NUMBER OF ATOMS
16
ITEM: BOX BOUNDS pp pp pp
0.0000000000000000e+00 6.3517287856616997e+00
0.0000000000000000e+00 6.1227039874125699e+00
0.0000000000000000e+00 6.0773435364487396e+00
ITEM: ATOMS id type x y z v_sa_hydro v_sa_von
9 4 1.58432 1.51961 1.73037 -11.9853 7.79135
10 5 4.77965 1.53326 1.38281 -6.15274 8.38748
8 1 3.35751 3.06123 3.07288 2.27081 10.5783
11 3 1.4834 4.58065 1.45665 2.02929 15.2643
4 1 2.97424 3.05755 0.0226725 3.14627 10.848
2 1 2.97746 6.12501 0.0224465 2.03522 11.2758
12 3 4.72226 4.59275 1.62501 0.512065 13.5258
1 2 0.180274 0.00448248 6.10103 10.1032 12.0521
3 2 0.185011 3.04799 6.09777 9.66259 13.0679
13 3 1.49834 1.53636 4.65925 1.26957 15.8728
5 1 6.14476 -0.00730768 3.06065 0.835118 11.7004
14 3 4.73516 1.52619 4.507 0.843266 15.7558
15 5 1.5789 4.59763 4.41575 -6.91552 8.86509
7 2 6.16721 3.06195 3.06314 11.4524 12.3013
6 2 3.36298 6.12424 3.07169 11.0134 10.7437
16 4 4.78287 4.58659 4.77328 -11.8179 7.24773
