/home/sez26/TIGP-IIP/HEA_dislocation/Perfect/Var2/HEA_I.lmp (written by ASE) 

11664 	 atoms 
5  atom types
0.0      56.195999999999998  xlo xhi
0.0      56.195999999999998  ylo yhi
0.0      56.195999999999998  zlo zhi


Atoms 

     1   5                       0                       0                       0
     2   1      3.1219999999999999                       0                       0
     3   3      6.2439999999999998                       0                       0
     4   2      9.3659999999999997                       0                       0
     5   1                  12.488                       0                       0
     6   3      15.609999999999999                       0                       0
     7   4      18.731999999999999                       0                       0
     8   2      21.853999999999999                       0                       0
     9   2      24.975999999999999                       0                       0
    10   5      28.097999999999999                       0                       0
    11   4      31.219999999999999                       0                       0
    12   1      34.341999999999999                       0                       0
    13   2      37.463999999999999                       0                       0
    14   3      40.585999999999999                       0                       0
    15   1      43.707999999999998                       0                       0
    16   1      46.829999999999998                       0                       0
    17   3      49.951999999999998                       0                       0
    18   4      53.073999999999998                       0                       0
    19   3                       0      3.1219999999999999                       0
    20   1      3.1219999999999999      3.1219999999999999                       0
    21   2      6.2439999999999998      3.1219999999999999                       0
    22   5      9.3659999999999997      3.1219999999999999                       0
    23   3                  12.488      3.1219999999999999                       0
    24   3      15.609999999999999      3.1219999999999999                       0
    25   1      18.731999999999999      3.1219999999999999                       0
    26   4      21.853999999999999      3.1219999999999999                       0
    27   5      24.975999999999999      3.1219999999999999                       0
    28   2      28.097999999999999      3.1219999999999999                       0
    29   2      31.219999999999999      3.1219999999999999                       0
    30   2      34.341999999999999      3.1219999999999999                       0
    31   3      37.463999999999999      3.1219999999999999                       0
    32   3      40.585999999999999      3.1219999999999999                       0
    33   1      43.707999999999998      3.1219999999999999                       0
    34   2      46.829999999999998      3.1219999999999999                       0
    35   4      49.951999999999998      3.1219999999999999                       0
    36   1      53.073999999999998      3.1219999999999999                       0
    37   1                       0      6.2439999999999998                       0
    38   1      3.1219999999999999      6.2439999999999998                       0
    39   1      6.2439999999999998      6.2439999999999998                       0
    40   2      9.3659999999999997      6.2439999999999998                       0
    41   1                  12.488      6.2439999999999998                       0
    42   2      15.609999999999999      6.2439999999999998                       0
    43   3      18.731999999999999      6.2439999999999998                       0
    44   2      21.853999999999999      6.2439999999999998                       0
    45   3      24.975999999999999      6.2439999999999998                       0
    46   5      28.097999999999999      6.2439999999999998                       0
    47   1      31.219999999999999      6.2439999999999998                       0
    48   2      34.341999999999999      6.2439999999999998                       0
    49   4      37.463999999999999      6.2439999999999998                       0
    50   5      40.585999999999999      6.2439999999999998                       0
    51   1      43.707999999999998      6.2439999999999998                       0
    52   4      46.829999999999998      6.2439999999999998                       0
    53   1      49.951999999999998      6.2439999999999998                       0
    54   4      53.073999999999998      6.2439999999999998                       0
    55   3                       0      9.3659999999999997                       0
    56   2      3.1219999999999999      9.3659999999999997                       0
    57   5      6.2439999999999998      9.3659999999999997                       0
    58   1      9.3659999999999997      9.3659999999999997                       0
    59   1                  12.488      9.3659999999999997                       0
    60   2      15.609999999999999      9.3659999999999997                       0
    61   2      18.731999999999999      9.3659999999999997                       0
    62   3      21.853999999999999      9.3659999999999997                       0
    63   2      24.975999999999999      9.3659999999999997                       0
    64   3      28.097999999999999      9.3659999999999997                       0
    65   5      31.219999999999999      9.3659999999999997                       0
    66   4      34.341999999999999      9.3659999999999997                       0
    67   1      37.463999999999999      9.3659999999999997                       0
    68   1      40.585999999999999      9.3659999999999997                       0
    69   2      43.707999999999998      9.3659999999999997                       0
    70   4      46.829999999999998      9.3659999999999997                       0
    71   1      49.951999999999998      9.3659999999999997                       0
    72   5      53.073999999999998      9.3659999999999997                       0
    73   3                       0                  12.488                       0
    74   2      3.1219999999999999                  12.488                       0
    75   2      6.2439999999999998                  12.488                       0
    76   2      9.3659999999999997                  12.488                       0
    77   5                  12.488                  12.488                       0
    78   2      15.609999999999999                  12.488                       0
    79   2      18.731999999999999                  12.488                       0
    80   5      21.853999999999999                  12.488                       0
    81   1      24.975999999999999                  12.488                       0
    82   3      28.097999999999999                  12.488                       0
    83   1      31.219999999999999                  12.488                       0
    84   1      34.341999999999999                  12.488                       0
    85   3      37.463999999999999                  12.488                       0
    86   2      40.585999999999999                  12.488                       0
    87   3      43.707999999999998                  12.488                       0
    88   3      46.829999999999998                  12.488                       0
    89   1      49.951999999999998                  12.488                       0
    90   4      53.073999999999998                  12.488                       0
    91   3                       0      15.609999999999999                       0
    92   2      3.1219999999999999      15.609999999999999                       0
    93   2      6.2439999999999998      15.609999999999999                       0
    94   3      9.3659999999999997      15.609999999999999                       0
    95   3                  12.488      15.609999999999999                       0
    96   2      15.609999999999999      15.609999999999999                       0
    97   1      18.731999999999999      15.609999999999999                       0
    98   2      21.853999999999999      15.609999999999999                       0
    99   2      24.975999999999999      15.609999999999999                       0
   100   5      28.097999999999999      15.609999999999999                       0
   101   2      31.219999999999999      15.609999999999999                       0
   102   5      34.341999999999999      15.609999999999999                       0
   103   3      37.463999999999999      15.609999999999999                       0
   104   2      40.585999999999999      15.609999999999999                       0
   105   1      43.707999999999998      15.609999999999999                       0
   106   2      46.829999999999998      15.609999999999999                       0
   107   3      49.951999999999998      15.609999999999999                       0
   108   4      53.073999999999998      15.609999999999999                       0
   109   5                       0      18.731999999999999                       0
   110   2      3.1219999999999999      18.731999999999999                       0
   111   2      6.2439999999999998      18.731999999999999                       0
   112   1      9.3659999999999997      18.731999999999999                       0
   113   2                  12.488      18.731999999999999                       0
   114   5      15.609999999999999      18.731999999999999                       0
   115   2      18.731999999999999      18.731999999999999                       0
   116   2      21.853999999999999      18.731999999999999                       0
   117   4      24.975999999999999      18.731999999999999                       0
   118   2      28.097999999999999      18.731999999999999                       0
   119   3      31.219999999999999      18.731999999999999                       0
   120   4      34.341999999999999      18.731999999999999                       0
   121   3      37.463999999999999      18.731999999999999                       0
   122   5      40.585999999999999      18.731999999999999                       0
   123   5      43.707999999999998      18.731999999999999                       0
   124   3      46.829999999999998      18.731999999999999                       0
   125   4      49.951999999999998      18.731999999999999                       0
   126   3      53.073999999999998      18.731999999999999                       0
   127   2                       0      21.853999999999999                       0
   128   2      3.1219999999999999      21.853999999999999                       0
   129   4      6.2439999999999998      21.853999999999999                       0
   130   4      9.3659999999999997      21.853999999999999                       0
   131   1                  12.488      21.853999999999999                       0
   132   1      15.609999999999999      21.853999999999999                       0
   133   4      18.731999999999999      21.853999999999999                       0
   134   5      21.853999999999999      21.853999999999999                       0
   135   5      24.975999999999999      21.853999999999999                       0
   136   2      28.097999999999999      21.853999999999999                       0
   137   5      31.219999999999999      21.853999999999999                       0
   138   4      34.341999999999999      21.853999999999999                       0
   139   1      37.463999999999999      21.853999999999999                       0
   140   2      40.585999999999999      21.853999999999999                       0
   141   2      43.707999999999998      21.853999999999999                       0
   142   1      46.829999999999998      21.853999999999999                       0
   143   2      49.951999999999998      21.853999999999999                       0
   144   3      53.073999999999998      21.853999999999999                       0
   145   4                       0      24.975999999999999                       0
   146   2      3.1219999999999999      24.975999999999999                       0
   147   1      6.2439999999999998      24.975999999999999                       0
   148   5      9.3659999999999997      24.975999999999999                       0
   149   2                  12.488      24.975999999999999                       0
   150   1      15.609999999999999      24.975999999999999                       0
   151   4      18.731999999999999      24.975999999999999                       0
   152   3      21.853999999999999      24.975999999999999                       0
   153   2      24.975999999999999      24.975999999999999                       0
   154   4      28.097999999999999      24.975999999999999                       0
   155   5      31.219999999999999      24.975999999999999                       0
   156   4      34.341999999999999      24.975999999999999                       0
   157   1      37.463999999999999      24.975999999999999                       0
   158   1      40.585999999999999      24.975999999999999                       0
   159   2      43.707999999999998      24.975999999999999                       0
   160   2      46.829999999999998      24.975999999999999                       0
   161   3      49.951999999999998      24.975999999999999                       0
   162   2      53.073999999999998      24.975999999999999                       0
   163   1                       0      28.097999999999999                       0
   164   3      3.1219999999999999      28.097999999999999                       0
   165   3      6.2439999999999998      28.097999999999999                       0
   166   1      9.3659999999999997      28.097999999999999                       0
   167   1                  12.488      28.097999999999999                       0
   168   2      15.609999999999999      28.097999999999999                       0
   169   1      18.731999999999999      28.097999999999999                       0
   170   1      21.853999999999999      28.097999999999999                       0
   171   2      24.975999999999999      28.097999999999999                       0
   172   1      28.097999999999999      28.097999999999999                       0
   173   3      31.219999999999999      28.097999999999999                       0
   174   1      34.341999999999999      28.097999999999999                       0
   175   4      37.463999999999999      28.097999999999999                       0
   176   1      40.585999999999999      28.097999999999999                       0
   177   2      43.707999999999998      28.097999999999999                       0
   178   2      46.829999999999998      28.097999999999999                       0
   179   1      49.951999999999998      28.097999999999999                       0
   180   3      53.073999999999998      28.097999999999999                       0
   181   2                       0      31.219999999999999                       0
   182   1      3.1219999999999999      31.219999999999999                       0
   183   4      6.2439999999999998      31.219999999999999                       0
   184   2      9.3659999999999997      31.219999999999999                       0
   185   2                  12.488      31.219999999999999                       0
   186   4      15.609999999999999      31.219999999999999                       0
   187   2      18.731999999999999      31.219999999999999                       0
   188   2      21.853999999999999      31.219999999999999                       0
   189   5      24.975999999999999      31.219999999999999                       0
   190   1      28.097999999999999      31.219999999999999                       0
   191   4      31.219999999999999      31.219999999999999                       0
   192   4      34.341999999999999      31.219999999999999                       0
   193   1      37.463999999999999      31.219999999999999                       0
   194   4      40.585999999999999      31.219999999999999                       0
   195   4      43.707999999999998      31.219999999999999                       0
   196   4      46.829999999999998      31.219999999999999                       0
   197   1      49.951999999999998      31.219999999999999                       0
   198   5      53.073999999999998      31.219999999999999                       0
   199   5                       0      34.341999999999999                       0
   200   5      3.1219999999999999      34.341999999999999                       0
   201   2      6.2439999999999998      34.341999999999999                       0
   202   5      9.3659999999999997      34.341999999999999                       0
   203   2                  12.488      34.341999999999999                       0
   204   1      15.609999999999999      34.341999999999999                       0
   205   4      18.731999999999999      34.341999999999999                       0
   206   5      21.853999999999999      34.341999999999999                       0
   207   1      24.975999999999999      34.341999999999999                       0
   208   1      28.097999999999999      34.341999999999999                       0
   209   2      31.219999999999999      34.341999999999999                       0
   210   1      34.341999999999999      34.341999999999999                       0
   211   3      37.463999999999999      34.341999999999999                       0
   212   5      40.585999999999999      34.341999999999999                       0
   213   1      43.707999999999998      34.341999999999999                       0
   214   5      46.829999999999998      34.341999999999999                       0
   215   5      49.951999999999998      34.341999999999999                       0
   216   1      53.073999999999998      34.341999999999999                       0
   217   2                       0      37.463999999999999                       0
   218   3      3.1219999999999999      37.463999999999999                       0
   219   3      6.2439999999999998      37.463999999999999                       0
   220   1      9.3659999999999997      37.463999999999999                       0
   221   1                  12.488      37.463999999999999                       0
   222   1      15.609999999999999      37.463999999999999                       0
   223   2      18.731999999999999      37.463999999999999                       0
   224   1      21.853999999999999      37.463999999999999                       0
   225   2      24.975999999999999      37.463999999999999                       0
   226   4      28.097999999999999      37.463999999999999                       0
   227   2      31.219999999999999      37.463999999999999                       0
   228   2      34.341999999999999      37.463999999999999                       0
   229   3      37.463999999999999      37.463999999999999                       0
   230   4      40.585999999999999      37.463999999999999                       0
   231   2      43.707999999999998      37.463999999999999                       0
   232   1      46.829999999999998      37.463999999999999                       0
   233   1      49.951999999999998      37.463999999999999                       0
   234   5      53.073999999999998      37.463999999999999                       0
   235   5                       0      40.585999999999999                       0
   236   2      3.1219999999999999      40.585999999999999                       0
   237   2      6.2439999999999998      40.585999999999999                       0
   238   4      9.3659999999999997      40.585999999999999                       0
   239   3                  12.488      40.585999999999999                       0
   240   4      15.609999999999999      40.585999999999999                       0
   241   5      18.731999999999999      40.585999999999999                       0
   242   2      21.853999999999999      40.585999999999999                       0
   243   1      24.975999999999999      40.585999999999999                       0
   244   3      28.097999999999999      40.585999999999999                       0
   245   1      31.219999999999999      40.585999999999999                       0
   246   2      34.341999999999999      40.585999999999999                       0
   247   4      37.463999999999999      40.585999999999999                       0
   248   1      40.585999999999999      40.585999999999999                       0
   249   4      43.707999999999998      40.585999999999999                       0
   250   4      46.829999999999998      40.585999999999999                       0
   251   1      49.951999999999998      40.585999999999999                       0
   252   4      53.073999999999998      40.585999999999999                       0
   253   2                       0      43.707999999999998                       0
   254   2      3.1219999999999999      43.707999999999998                       0
   255   5      6.2439999999999998      43.707999999999998                       0
   256   1      9.3659999999999997      43.707999999999998                       0
   257   2                  12.488      43.707999999999998                       0
   258   4      15.609999999999999      43.707999999999998                       0
   259   5      18.731999999999999      43.707999999999998                       0
   260   5      21.853999999999999      43.707999999999998                       0
   261   2      24.975999999999999      43.707999999999998                       0
   262   1      28.097999999999999      43.707999999999998                       0
   263   3      31.219999999999999      43.707999999999998                       0
   264   2      34.341999999999999      43.707999999999998                       0
   265   5      37.463999999999999      43.707999999999998                       0
   266   5      40.585999999999999      43.707999999999998                       0
   267   4      43.707999999999998      43.707999999999998                       0
   268   3      46.829999999999998      43.707999999999998                       0
   269   5      49.951999999999998      43.707999999999998                       0
   270   5      53.073999999999998      43.707999999999998                       0
   271   2                       0      46.829999999999998                       0
   272   1      3.1219999999999999      46.829999999999998                       0
   273   2      6.2439999999999998      46.829999999999998                       0
   274   1      9.3659999999999997      46.829999999999998                       0
   275   3                  12.488      46.829999999999998                       0
   276   4      15.609999999999999      46.829999999999998                       0
   277   2      18.731999999999999      46.829999999999998                       0
   278   4      21.853999999999999      46.829999999999998                       0
   279   4      24.975999999999999      46.829999999999998                       0
   280   2      28.097999999999999      46.829999999999998                       0
   281   3      31.219999999999999      46.829999999999998                       0
   282   3      34.341999999999999      46.829999999999998                       0
   283   1      37.463999999999999      46.829999999999998                       0
   284   1      40.585999999999999      46.829999999999998                       0
   285   1      43.707999999999998      46.829999999999998                       0
   286   2      46.829999999999998      46.829999999999998                       0
   287   1      49.951999999999998      46.829999999999998                       0
   288   1      53.073999999999998      46.829999999999998                       0
   289   3                       0      49.951999999999998                       0
   290   2      3.1219999999999999      49.951999999999998                       0
   291   3      6.2439999999999998      49.951999999999998                       0
   292   4      9.3659999999999997      49.951999999999998                       0
   293   1                  12.488      49.951999999999998                       0
   294   5      15.609999999999999      49.951999999999998                       0
   295   1      18.731999999999999      49.951999999999998                       0
   296   4      21.853999999999999      49.951999999999998                       0
   297   1      24.975999999999999      49.951999999999998                       0
   298   2      28.097999999999999      49.951999999999998                       0
   299   1      31.219999999999999      49.951999999999998                       0
   300   2      34.341999999999999      49.951999999999998                       0
   301   1      37.463999999999999      49.951999999999998                       0
   302   5      40.585999999999999      49.951999999999998                       0
   303   5      43.707999999999998      49.951999999999998                       0
   304   2      46.829999999999998      49.951999999999998                       0
   305   3      49.951999999999998      49.951999999999998                       0
   306   1      53.073999999999998      49.951999999999998                       0
   307   2                       0      53.073999999999998                       0
   308   2      3.1219999999999999      53.073999999999998                       0
   309   1      6.2439999999999998      53.073999999999998                       0
   310   5      9.3659999999999997      53.073999999999998                       0
   311   1                  12.488      53.073999999999998                       0
   312   4      15.609999999999999      53.073999999999998                       0
   313   5      18.731999999999999      53.073999999999998                       0
   314   3      21.853999999999999      53.073999999999998                       0
   315   2      24.975999999999999      53.073999999999998                       0
   316   2      28.097999999999999      53.073999999999998                       0
   317   5      31.219999999999999      53.073999999999998                       0
   318   5      34.341999999999999      53.073999999999998                       0
   319   3      37.463999999999999      53.073999999999998                       0
   320   5      40.585999999999999      53.073999999999998                       0
   321   4      43.707999999999998      53.073999999999998                       0
   322   3      46.829999999999998      53.073999999999998                       0
   323   5      49.951999999999998      53.073999999999998                       0
   324   1      53.073999999999998      53.073999999999998                       0
   325   3                       0                       0      3.1219999999999999
   326   4      3.1219999999999999                       0      3.1219999999999999
   327   2      6.2439999999999998                       0      3.1219999999999999
   328   1      9.3659999999999997                       0      3.1219999999999999
   329   1                  12.488                       0      3.1219999999999999
   330   2      15.609999999999999                       0      3.1219999999999999
   331   1      18.731999999999999                       0      3.1219999999999999
   332   4      21.853999999999999                       0      3.1219999999999999
   333   5      24.975999999999999                       0      3.1219999999999999
   334   2      28.097999999999999                       0      3.1219999999999999
   335   5      31.219999999999999                       0      3.1219999999999999
   336   2      34.341999999999999                       0      3.1219999999999999
   337   1      37.463999999999999                       0      3.1219999999999999
   338   2      40.585999999999999                       0      3.1219999999999999
   339   1      43.707999999999998                       0      3.1219999999999999
   340   3      46.829999999999998                       0      3.1219999999999999
   341   1      49.951999999999998                       0      3.1219999999999999
   342   1      53.073999999999998                       0      3.1219999999999999
   343   4                       0      3.1219999999999999      3.1219999999999999
   344   2      3.1219999999999999      3.1219999999999999      3.1219999999999999
   345   4      6.2439999999999998      3.1219999999999999      3.1219999999999999
   346   2      9.3659999999999997      3.1219999999999999      3.1219999999999999
   347   4                  12.488      3.1219999999999999      3.1219999999999999
   348   3      15.609999999999999      3.1219999999999999      3.1219999999999999
   349   1      18.731999999999999      3.1219999999999999      3.1219999999999999
   350   2      21.853999999999999      3.1219999999999999      3.1219999999999999
   351   2      24.975999999999999      3.1219999999999999      3.1219999999999999
   352   1      28.097999999999999      3.1219999999999999      3.1219999999999999
   353   5      31.219999999999999      3.1219999999999999      3.1219999999999999
   354   2      34.341999999999999      3.1219999999999999      3.1219999999999999
   355   1      37.463999999999999      3.1219999999999999      3.1219999999999999
   356   5      40.585999999999999      3.1219999999999999      3.1219999999999999
   357   4      43.707999999999998      3.1219999999999999      3.1219999999999999
   358   3      46.829999999999998      3.1219999999999999      3.1219999999999999