/home/sez26/TIGP-IIP/HEA_dislocation/Perfect/Var2/HEA_III.lmp (written by ASE) 

11664 	 atoms 
5  atom types
0.0      56.195999999999998  xlo xhi
0.0      56.195999999999998  ylo yhi
0.0      56.195999999999998  zlo zhi


Atoms 

     1   2                       0                       0                       0
     2   4      3.1219999999999999                       0                       0
     3   4      6.2439999999999998                       0                       0
     4   1      9.3659999999999997                       0                       0
     5   2                  12.488                       0                       0
     6   1      15.609999999999999                       0                       0
     7   1      18.731999999999999                       0                       0
     8   2      21.853999999999999                       0                       0
     9   1      24.975999999999999                       0                       0
    10   1      28.097999999999999                       0                       0
    11   1      31.219999999999999                       0                       0
    12   2      34.341999999999999                       0                       0
    13   2      37.463999999999999                       0                       0
    14   4      40.585999999999999                       0                       0
    15   4      43.707999999999998                       0                       0
    16   2      46.829999999999998                       0                       0
    17   1      49.951999999999998                       0                       0
    18   1      53.073999999999998                       0                       0
    19   1                       0      3.1219999999999999                       0
    20   2      3.1219999999999999      3.1219999999999999                       0
    21   2      6.2439999999999998      3.1219999999999999                       0
    22   2      9.3659999999999997      3.1219999999999999                       0
    23   4                  12.488      3.1219999999999999                       0
    24   1      15.609999999999999      3.1219999999999999                       0
    25   2      18.731999999999999      3.1219999999999999                       0
    26   2      21.853999999999999      3.1219999999999999                       0
    27   2      24.975999999999999      3.1219999999999999                       0
    28   1      28.097999999999999      3.1219999999999999                       0
    29   2      31.219999999999999      3.1219999999999999                       0
    30   2      34.341999999999999      3.1219999999999999                       0
    31   2      37.463999999999999      3.1219999999999999                       0
    32   2      40.585999999999999      3.1219999999999999                       0
    33   1      43.707999999999998      3.1219999999999999                       0
    34   1      46.829999999999998      3.1219999999999999                       0
    35   1      49.951999999999998      3.1219999999999999                       0
    36   2      53.073999999999998      3.1219999999999999                       0
    37   2                       0      6.2439999999999998                       0
    38   2      3.1219999999999999      6.2439999999999998                       0
    39   4      6.2439999999999998      6.2439999999999998                       0
    40   1      9.3659999999999997      6.2439999999999998                       0
    41   2                  12.488      6.2439999999999998                       0
    42   1      15.609999999999999      6.2439999999999998                       0
    43   2      18.731999999999999      6.2439999999999998                       0
    44   4      21.853999999999999      6.2439999999999998                       0
    45   1      24.975999999999999      6.2439999999999998                       0
    46   1      28.097999999999999      6.2439999999999998                       0
    47   1      31.219999999999999      6.2439999999999998                       0
    48   4      34.341999999999999      6.2439999999999998                       0
    49   2      37.463999999999999      6.2439999999999998                       0
    50   1      40.585999999999999      6.2439999999999998                       0
    51   2      43.707999999999998      6.2439999999999998                       0
    52   1      46.829999999999998      6.2439999999999998                       0
    53   4      49.951999999999998      6.2439999999999998                       0
    54   2      53.073999999999998      6.2439999999999998                       0
    55   2                       0      9.3659999999999997                       0
    56   1      3.1219999999999999      9.3659999999999997                       0
    57   2      6.2439999999999998      9.3659999999999997                       0
    58   2      9.3659999999999997      9.3659999999999997                       0
    59   1                  12.488      9.3659999999999997                       0
    60   2      15.609999999999999      9.3659999999999997                       0
    61   1      18.731999999999999      9.3659999999999997                       0
    62   4      21.853999999999999      9.3659999999999997                       0
    63   2      24.975999999999999      9.3659999999999997                       0
    64   2      28.097999999999999      9.3659999999999997                       0
    65   2      31.219999999999999      9.3659999999999997                       0
    66   2      34.341999999999999      9.3659999999999997                       0
    67   2      37.463999999999999      9.3659999999999997                       0
    68   1      40.585999999999999      9.3659999999999997                       0
    69   2      43.707999999999998      9.3659999999999997                       0
    70   1      46.829999999999998      9.3659999999999997                       0
    71   1      49.951999999999998      9.3659999999999997                       0
    72   2      53.073999999999998      9.3659999999999997                       0
    73   2                       0                  12.488                       0
    74   2      3.1219999999999999                  12.488                       0
    75   1      6.2439999999999998                  12.488                       0
    76   1      9.3659999999999997                  12.488                       0
    77   2                  12.488                  12.488                       0
    78   1      15.609999999999999                  12.488                       0
    79   1      18.731999999999999                  12.488                       0
    80   2      21.853999999999999                  12.488                       0
    81   2      24.975999999999999                  12.488                       0
    82   1      28.097999999999999                  12.488                       0
    83   1      31.219999999999999                  12.488                       0
    84   1      34.341999999999999                  12.488                       0
    85   1      37.463999999999999                  12.488                       0
    86   2      40.585999999999999                  12.488                       0
    87   4      43.707999999999998                  12.488                       0
    88   1      46.829999999999998                  12.488                       0
    89   2      49.951999999999998                  12.488                       0
    90   1      53.073999999999998                  12.488                       0
    91   2                       0      15.609999999999999                       0
    92   1      3.1219999999999999      15.609999999999999                       0
    93   2      6.2439999999999998      15.609999999999999                       0
    94   1      9.3659999999999997      15.609999999999999                       0
    95   2                  12.488      15.609999999999999                       0
    96   1      15.609999999999999      15.609999999999999                       0
    97   1      18.731999999999999      15.609999999999999                       0
    98   1      21.853999999999999      15.609999999999999                       0
    99   2      24.975999999999999      15.609999999999999                       0
   100   2      28.097999999999999      15.609999999999999                       0
   101   4      31.219999999999999      15.609999999999999                       0
   102   2      34.341999999999999      15.609999999999999                       0
   103   2      37.463999999999999      15.609999999999999                       0
   104   2      40.585999999999999      15.609999999999999                       0
   105   1      43.707999999999998      15.609999999999999                       0
   106   4      46.829999999999998      15.609999999999999                       0
   107   1      49.951999999999998      15.609999999999999                       0
   108   2      53.073999999999998      15.609999999999999                       0
   109   1                       0      18.731999999999999                       0
   110   2      3.1219999999999999      18.731999999999999                       0
   111   1      6.2439999999999998      18.731999999999999                       0
   112   1      9.3659999999999997      18.731999999999999                       0
   113   2                  12.488      18.731999999999999                       0
   114   2      15.609999999999999      18.731999999999999                       0
   115   1      18.731999999999999      18.731999999999999                       0
   116   1      21.853999999999999      18.731999999999999                       0
   117   2      24.975999999999999      18.731999999999999                       0
   118   2      28.097999999999999      18.731999999999999                       0
   119   1      31.219999999999999      18.731999999999999                       0
   120   1      34.341999999999999      18.731999999999999                       0
   121   4      37.463999999999999      18.731999999999999                       0
   122   2      40.585999999999999      18.731999999999999                       0
   123   1      43.707999999999998      18.731999999999999                       0
   124   4      46.829999999999998      18.731999999999999                       0
   125   1      49.951999999999998      18.731999999999999                       0
   126   2      53.073999999999998      18.731999999999999                       0
   127   4                       0      21.853999999999999                       0
   128   2      3.1219999999999999      21.853999999999999                       0
   129   2      6.2439999999999998      21.853999999999999                       0
   130   2      9.3659999999999997      21.853999999999999                       0
   131   4                  12.488      21.853999999999999                       0
   132   1      15.609999999999999      21.853999999999999                       0
   133   2      18.731999999999999      21.853999999999999                       0
   134   2      21.853999999999999      21.853999999999999                       0
   135   1      24.975999999999999      21.853999999999999                       0
   136   2      28.097999999999999      21.853999999999999                       0
   137   4      31.219999999999999      21.853999999999999                       0
   138   1      34.341999999999999      21.853999999999999                       0
   139   1      37.463999999999999      21.853999999999999                       0
   140   2      40.585999999999999      21.853999999999999                       0
   141   2      43.707999999999998      21.853999999999999                       0
   142   2      46.829999999999998      21.853999999999999                       0
   143   1      49.951999999999998      21.853999999999999                       0
   144   1      53.073999999999998      21.853999999999999                       0
   145   1                       0      24.975999999999999                       0
   146   1      3.1219999999999999      24.975999999999999                       0
   147   2      6.2439999999999998      24.975999999999999                       0
   148   1      9.3659999999999997      24.975999999999999                       0
   149   2                  12.488      24.975999999999999                       0
   150   1      15.609999999999999      24.975999999999999                       0
   151   2      18.731999999999999      24.975999999999999                       0
   152   1      21.853999999999999      24.975999999999999                       0
   153   1      24.975999999999999      24.975999999999999                       0
   154   2      28.097999999999999      24.975999999999999                       0
   155   2      31.219999999999999      24.975999999999999                       0
   156   1      34.341999999999999      24.975999999999999                       0
   157   2      37.463999999999999      24.975999999999999                       0
   158   1      40.585999999999999      24.975999999999999                       0
   159   2      43.707999999999998      24.975999999999999                       0
   160   2      46.829999999999998      24.975999999999999                       0
   161   4      49.951999999999998      24.975999999999999                       0
   162   2      53.073999999999998      24.975999999999999                       0
   163   1                       0      28.097999999999999                       0
   164   4      3.1219999999999999      28.097999999999999                       0
   165   2      6.2439999999999998      28.097999999999999                       0
   166   1      9.3659999999999997      28.097999999999999                       0
   167   2                  12.488      28.097999999999999                       0
   168   4      15.609999999999999      28.097999999999999                       0
   169   2      18.731999999999999      28.097999999999999                       0
   170   1      21.853999999999999      28.097999999999999                       0
   171   2      24.975999999999999      28.097999999999999                       0
   172   2      28.097999999999999      28.097999999999999                       0
   173   2      31.219999999999999      28.097999999999999                       0
   174   1      34.341999999999999      28.097999999999999                       0
   175   2      37.463999999999999      28.097999999999999                       0
   176   4      40.585999999999999      28.097999999999999                       0
   177   1      43.707999999999998      28.097999999999999                       0
   178   1      46.829999999999998      28.097999999999999                       0
   179   1      49.951999999999998      28.097999999999999                       0
   180   1      53.073999999999998      28.097999999999999                       0
   181   4                       0      31.219999999999999                       0
   182   2      3.1219999999999999      31.219999999999999                       0
   183   2      6.2439999999999998      31.219999999999999                       0
   184   2      9.3659999999999997      31.219999999999999                       0
   185   2                  12.488      31.219999999999999                       0
   186   1      15.609999999999999      31.219999999999999                       0
   187   4      18.731999999999999      31.219999999999999                       0
   188   1      21.853999999999999      31.219999999999999                       0
   189   1      24.975999999999999      31.219999999999999                       0
   190   4      28.097999999999999      31.219999999999999                       0
   191   1      31.219999999999999      31.219999999999999                       0
   192   2      34.341999999999999      31.219999999999999                       0
   193   2      37.463999999999999      31.219999999999999                       0
   194   1      40.585999999999999      31.219999999999999                       0
   195   2      43.707999999999998      31.219999999999999                       0
   196   1      46.829999999999998      31.219999999999999                       0
   197   2      49.951999999999998      31.219999999999999                       0
   198   2      53.073999999999998      31.219999999999999                       0
   199   2                       0      34.341999999999999                       0
   200   1      3.1219999999999999      34.341999999999999                       0
   201   1      6.2439999999999998      34.341999999999999                       0
   202   2      9.3659999999999997      34.341999999999999                       0
   203   2                  12.488      34.341999999999999                       0
   204   2      15.609999999999999      34.341999999999999                       0
   205   1      18.731999999999999      34.341999999999999                       0
   206   2      21.853999999999999      34.341999999999999                       0
   207   1      24.975999999999999      34.341999999999999                       0
   208   2      28.097999999999999      34.341999999999999                       0
   209   2      31.219999999999999      34.341999999999999                       0
   210   1      34.341999999999999      34.341999999999999                       0
   211   2      37.463999999999999      34.341999999999999                       0
   212   2      40.585999999999999      34.341999999999999                       0
   213   4      43.707999999999998      34.341999999999999                       0
   214   1      46.829999999999998      34.341999999999999                       0
   215   2      49.951999999999998      34.341999999999999                       0
   216   1      53.073999999999998      34.341999999999999                       0
   217   2                       0      37.463999999999999                       0
   218   2      3.1219999999999999      37.463999999999999                       0
   219   1      6.2439999999999998      37.463999999999999                       0
   220   2      9.3659999999999997      37.463999999999999                       0
   221   2                  12.488      37.463999999999999                       0
   222   1      15.609999999999999      37.463999999999999                       0
   223   2      18.731999999999999      37.463999999999999                       0
   224   4      21.853999999999999      37.463999999999999                       0
   225   2      24.975999999999999      37.463999999999999                       0
   226   2      28.097999999999999      37.463999999999999                       0
   227   1      31.219999999999999      37.463999999999999                       0
   228   1      34.341999999999999      37.463999999999999                       0
   229   1      37.463999999999999      37.463999999999999                       0
   230   2      40.585999999999999      37.463999999999999                       0
   231   2      43.707999999999998      37.463999999999999                       0
   232   1      46.829999999999998      37.463999999999999                       0
   233   4      49.951999999999998      37.463999999999999                       0
   234   2      53.073999999999998      37.463999999999999                       0
   235   2                       0      40.585999999999999                       0
   236   4      3.1219999999999999      40.585999999999999                       0
   237   1      6.2439999999999998      40.585999999999999                       0
   238   2      9.3659999999999997      40.585999999999999                       0
   239   1                  12.488      40.585999999999999                       0
   240   4      15.609999999999999      40.585999999999999                       0
   241   2      18.731999999999999      40.585999999999999                       0
   242   1      21.853999999999999      40.585999999999999                       0
   243   2      24.975999999999999      40.585999999999999                       0
   244   1      28.097999999999999      40.585999999999999                       0
   245   2      31.219999999999999      40.585999999999999                       0
   246   4      34.341999999999999      40.585999999999999                       0
   247   1      37.463999999999999      40.585999999999999                       0
   248   2      40.585999999999999      40.585999999999999                       0
   249   1      43.707999999999998      40.585999999999999                       0
   250   4      46.829999999999998      40.585999999999999                       0
   251   1      49.951999999999998      40.585999999999999                       0
   252   2      53.073999999999998      40.585999999999999                       0
   253   2                       0      43.707999999999998                       0
   254   2      3.1219999999999999      43.707999999999998                       0
   255   1      6.2439999999999998      43.707999999999998                       0
   256   1      9.3659999999999997      43.707999999999998                       0
   257   2                  12.488      43.707999999999998                       0
   258   1      15.609999999999999      43.707999999999998                       0
   259   1      18.731999999999999      43.707999999999998                       0
   260   1      21.853999999999999      43.707999999999998                       0
   261   4      24.975999999999999      43.707999999999998                       0
   262   2      28.097999999999999      43.707999999999998                       0
   263   1      31.219999999999999      43.707999999999998                       0
   264   1      34.341999999999999      43.707999999999998                       0
   265   2      37.463999999999999      43.707999999999998                       0
   266   2      40.585999999999999      43.707999999999998                       0
   267   1      43.707999999999998      43.707999999999998                       0
   268   2      46.829999999999998      43.707999999999998                       0
   269   2      49.951999999999998      43.707999999999998                       0
   270   2      53.073999999999998      43.707999999999998                       0
   271   2                       0      46.829999999999998                       0
   272   1      3.1219999999999999      46.829999999999998                       0
   273   1      6.2439999999999998      46.829999999999998                       0
   274   1      9.3659999999999997      46.829999999999998                       0
   275   2                  12.488      46.829999999999998                       0
   276   1      15.609999999999999      46.829999999999998                       0
   277   1      18.731999999999999      46.829999999999998                       0
   278   2      21.853999999999999      46.829999999999998                       0
   279   1      24.975999999999999      46.829999999999998                       0
   280   4      28.097999999999999      46.829999999999998                       0
   281   1      31.219999999999999      46.829999999999998                       0
   282   1      34.341999999999999      46.829999999999998                       0
   283   1      37.463999999999999      46.829999999999998                       0
   284   2      40.585999999999999      46.829999999999998                       0
   285   1      43.707999999999998      46.829999999999998                       0
   286   1      46.829999999999998      46.829999999999998                       0
   287   1      49.951999999999998      46.829999999999998                       0
   288   1      53.073999999999998      46.829999999999998                       0
   289   2                       0      49.951999999999998                       0
   290   2      3.1219999999999999      49.951999999999998                       0
   291   1      6.2439999999999998      49.951999999999998                       0
   292   2      9.3659999999999997      49.951999999999998                       0
   293   2                  12.488      49.951999999999998                       0
   294   1      15.609999999999999      49.951999999999998                       0
   295   1      18.731999999999999      49.951999999999998                       0
   296   2      21.853999999999999      49.951999999999998                       0
   297   1      24.975999999999999      49.951999999999998                       0
   298   1      28.097999999999999      49.951999999999998                       0
   299   1      31.219999999999999      49.951999999999998                       0
   300   2      34.341999999999999      49.951999999999998                       0
   301   1      37.463999999999999      49.951999999999998                       0
   302   4      40.585999999999999      49.951999999999998                       0
   303   4      43.707999999999998      49.951999999999998                       0
   304   1      46.829999999999998      49.951999999999998                       0
   305   1      49.951999999999998      49.951999999999998                       0
   306   2      53.073999999999998      49.951999999999998                       0
   307   1                       0      53.073999999999998                       0
   308   1      3.1219999999999999      53.073999999999998                       0
   309   4      6.2439999999999998      53.073999999999998                       0
   310   1      9.3659999999999997      53.073999999999998                       0
   311   1                  12.488      53.073999999999998                       0
   312   2      15.609999999999999      53.073999999999998                       0
   313   2      18.731999999999999      53.073999999999998                       0
   314   2      21.853999999999999      53.073999999999998                       0
   315   2      24.975999999999999      53.073999999999998                       0
   316   1      28.097999999999999      53.073999999999998                       0
   317   4      31.219999999999999      53.073999999999998                       0
   318   2      34.341999999999999      53.073999999999998                       0
   319   4      37.463999999999999      53.073999999999998                       0
   320   4      40.585999999999999      53.073999999999998                       0
   321   1      43.707999999999998      53.073999999999998                       0
   322   2      46.829999999999998      53.073999999999998                       0
   323   2      49.951999999999998      53.073999999999998                       0
   324   1      53.073999999999998      53.073999999999998                       0
   325   2                       0                       0      3.1219999999999999
   326   4      3.1219999999999999                       0      3.1219999999999999
   327   1      6.2439999999999998                       0      3.1219999999999999
   328   2      9.3659999999999997                       0      3.1219999999999999
   329   4                  12.488                       0      3.1219999999999999
   330   1      15.609999999999999                       0      3.1219999999999999
   331   1      18.731999999999999                       0      3.1219999999999999
   332   1      21.853999999999999                       0      3.1219999999999999
   333   1      24.975999999999999                       0      3.1219999999999999
   334   2      28.097999999999999                       0      3.1219999999999999
   335   2      31.219999999999999                       0      3.1219999999999999
   336   2      34.341999999999999                       0      3.1219999999999999
   337   1      37.463999999999999                       0      3.1219999999999999
   338   2      40.585999999999999                       0      3.1219999999999999
   339   2      43.707999999999998                       0      3.1219999999999999
   340   1      46.829999999999998                       0      3.1219999999999999
   341   4      49.951999999999998                       0      3.1219999999999999
   342   2      53.073999999999998                       0      3.1219999999999999
   343   1                       0      3.1219999999999999      3.1219999999999999
   344   1      3.1219999999999999      3.1219999999999999      3.1219999999999999
   345   2      6.2439999999999998      3.1219999999999999      3.1219999999999999
   346   1      9.3659999999999997      3.1219999999999999      3.1219999999999999
   347   4                  12.488      3.1219999999999999      3.1219999999999999
   348   1      15.609999999999999      3.1219999999999999      3.1219999999999999
   349   2      18.731999999999999      3.1219999999999999      3.1219999999999999
   350   2      21.853999999999999      3.1219999999999999      3.1219999999999999
   351   1      24.975999999999999      3.1219999999999999      3.1219999999999999
   352   2      28.097999999999999      3.1219999999999999      3.1219999999999999
   353   4      31.219999999999999      3.1219999999999999      3.1219999999999999
   354   1      34.341999999999999      3.1219999999999999      3.1219999999999999
   355   1      37.463999999999999      3.1219999999999999      3.1219999999999999
   356   2      40.585999999999999      3.1219999999999999      3.1219999999999999
   357   2      43.707999999999998      3.1219999999999999      3.1219999999999999
   358   1      46.829999999999998      3.1219999999999999      3.1219999999999999