(written by ASE)

6750 atoms
5 atom types

0.0      46.920000000000002  xlo xhi
0.0      46.920000000000002  ylo yhi
0.0      46.920000000000002  zlo zhi

Atoms # atomic

     1   1                       0                       0                       0
     2   1      3.1280000000000001                       0                       0
     3   2      6.2560000000000002                       0                       0
     4   1      9.3840000000000003                       0                       0
     5   1                  12.512                       0                       0
     6   1      15.640000000000001                       0                       0
     7   1      18.768000000000001                       0                       0
     8   2      21.896000000000001                       0                       0
     9   1      25.024000000000001                       0                       0
    10   2      28.152000000000001                       0                       0
    11   1      31.280000000000001                       0                       0
    12   2      34.408000000000001                       0                       0
    13   2      37.536000000000001                       0                       0
    14   1      40.664000000000001                       0                       0
    15   2      43.792000000000002                       0                       0
    16   1                       0      3.1280000000000001                       0
    17   2      3.1280000000000001      3.1280000000000001                       0
    18   2      6.2560000000000002      3.1280000000000001                       0
    19   1      9.3840000000000003      3.1280000000000001                       0
    20   1                  12.512      3.1280000000000001                       0
    21   1      15.640000000000001      3.1280000000000001                       0
    22   2      18.768000000000001      3.1280000000000001                       0
    23   1      21.896000000000001      3.1280000000000001                       0
    24   2      25.024000000000001      3.1280000000000001                       0
    25   1      28.152000000000001      3.1280000000000001                       0
    26   1      31.280000000000001      3.1280000000000001                       0
    27   2      34.408000000000001      3.1280000000000001                       0
    28   2      37.536000000000001      3.1280000000000001                       0
    29   2      40.664000000000001      3.1280000000000001                       0
    30   2      43.792000000000002      3.1280000000000001                       0
    31   2                       0      6.2560000000000002                       0
    32   2      3.1280000000000001      6.2560000000000002                       0
    33   2      6.2560000000000002      6.2560000000000002                       0
    34   1      9.3840000000000003      6.2560000000000002                       0
    35   1                  12.512      6.2560000000000002                       0
    36   1      15.640000000000001      6.2560000000000002                       0
    37   1      18.768000000000001      6.2560000000000002                       0
    38   2      21.896000000000001      6.2560000000000002                       0
    39   2      25.024000000000001      6.2560000000000002                       0
    40   2      28.152000000000001      6.2560000000000002                       0
    41   1      31.280000000000001      6.2560000000000002                       0
    42   1      34.408000000000001      6.2560000000000002                       0
    43   1      37.536000000000001      6.2560000000000002                       0
    44   2      40.664000000000001      6.2560000000000002                       0
    45   2      43.792000000000002      6.2560000000000002                       0
    46   1                       0      9.3840000000000003                       0
    47   1      3.1280000000000001      9.3840000000000003                       0
    48   1      6.2560000000000002      9.3840000000000003                       0
    49   2      9.3840000000000003      9.3840000000000003                       0
    50   2                  12.512      9.3840000000000003                       0
    51   2      15.640000000000001      9.3840000000000003                       0
    52   2      18.768000000000001      9.3840000000000003                       0
    53   2      21.896000000000001      9.3840000000000003                       0
    54   1      25.024000000000001      9.3840000000000003                       0
    55   2      28.152000000000001      9.3840000000000003                       0
    56   2      31.280000000000001      9.3840000000000003                       0
    57   1      34.408000000000001      9.3840000000000003                       0
    58   2      37.536000000000001      9.3840000000000003                       0
    59   2      40.664000000000001      9.3840000000000003                       0
    60   2      43.792000000000002      9.3840000000000003                       0
    61   1                       0                  12.512                       0
    62   2      3.1280000000000001                  12.512                       0
    63   1      6.2560000000000002                  12.512                       0
    64   2      9.3840000000000003                  12.512                       0
    65   1                  12.512                  12.512                       0
    66   2      15.640000000000001                  12.512                       0
    67   1      18.768000000000001                  12.512                       0
    68   1      21.896000000000001                  12.512                       0
    69   1      25.024000000000001                  12.512                       0
    70   1      28.152000000000001                  12.512                       0
    71   2      31.280000000000001                  12.512                       0
    72   1      34.408000000000001                  12.512                       0
    73   1      37.536000000000001                  12.512                       0
    74   2      40.664000000000001                  12.512                       0
    75   1      43.792000000000002                  12.512                       0
    76   2                       0      15.640000000000001                       0
    77   2      3.1280000000000001      15.640000000000001                       0
    78   1      6.2560000000000002      15.640000000000001                       0
    79   2      9.3840000000000003      15.640000000000001                       0
    80   1                  12.512      15.640000000000001                       0
    81   2      15.640000000000001      15.640000000000001                       0
    82   1      18.768000000000001      15.640000000000001                       0
    83   1      21.896000000000001      15.640000000000001                       0
    84   2      25.024000000000001      15.640000000000001                       0
    85   1      28.152000000000001      15.640000000000001                       0
    86   2      31.280000000000001      15.640000000000001                       0
    87   2      34.408000000000001      15.640000000000001                       0
    88   1      37.536000000000001      15.640000000000001                       0
    89   1      40.664000000000001      15.640000000000001                       0
    90   2      43.792000000000002      15.640000000000001                       0
    91   2                       0      18.768000000000001                       0
    92   1      3.1280000000000001      18.768000000000001                       0
    93   2      6.2560000000000002      18.768000000000001                       0
    94   1      9.3840000000000003      18.768000000000001                       0
    95   2                  12.512      18.768000000000001                       0
    96   2      15.640000000000001      18.768000000000001                       0
    97   2      18.768000000000001      18.768000000000001                       0
    98   1      21.896000000000001      18.768000000000001                       0
    99   2      25.024000000000001      18.768000000000001                       0
   100   2      28.152000000000001      18.768000000000001                       0
   101   1      31.280000000000001      18.768000000000001                       0
   102   2      34.408000000000001      18.768000000000001                       0
   103   1      37.536000000000001      18.768000000000001                       0
   104   2      40.664000000000001      18.768000000000001                       0
   105   2      43.792000000000002      18.768000000000001                       0
   106   1                       0      21.896000000000001                       0
   107   2      3.1280000000000001      21.896000000000001                       0
   108   2      6.2560000000000002      21.896000000000001                       0
   109   1      9.3840000000000003      21.896000000000001                       0
   110   1                  12.512      21.896000000000001                       0
   111   2      15.640000000000001      21.896000000000001                       0
   112   1      18.768000000000001      21.896000000000001                       0
   113   1      21.896000000000001      21.896000000000001                       0
   114   1      25.024000000000001      21.896000000000001                       0
   115   1      28.152000000000001      21.896000000000001                       0
   116   2      31.280000000000001      21.896000000000001                       0
   117   1      34.408000000000001      21.896000000000001                       0
   118   2      37.536000000000001      21.896000000000001                       0
   119   2      40.664000000000001      21.896000000000001                       0
   120   2      43.792000000000002      21.896000000000001                       0
   121   2                       0      25.024000000000001                       0
   122   1      3.1280000000000001      25.024000000000001                       0
   123   1      6.2560000000000002      25.024000000000001                       0
   124   1      9.3840000000000003      25.024000000000001                       0
   125   1                  12.512      25.024000000000001                       0
   126   2      15.640000000000001      25.024000000000001                       0
   127   2      18.768000000000001      25.024000000000001                       0
   128   1      21.896000000000001      25.024000000000001                       0
   129   2      25.024000000000001      25.024000000000001                       0
   130   1      28.152000000000001      25.024000000000001                       0
   131   1      31.280000000000001      25.024000000000001                       0
   132   1      34.408000000000001      25.024000000000001                       0
   133   2      37.536000000000001      25.024000000000001                       0
   134   1      40.664000000000001      25.024000000000001                       0
   135   2      43.792000000000002      25.024000000000001                       0
   136   1                       0      28.152000000000001                       0
   137   2      3.1280000000000001      28.152000000000001                       0
   138   2      6.2560000000000002      28.152000000000001                       0
   139   1      9.3840000000000003      28.152000000000001                       0
   140   1                  12.512      28.152000000000001                       0
   141   1      15.640000000000001      28.152000000000001                       0
   142   2      18.768000000000001      28.152000000000001                       0
   143   2      21.896000000000001      28.152000000000001                       0
   144   2      25.024000000000001      28.152000000000001                       0
   145   2      28.152000000000001      28.152000000000001                       0
   146   1      31.280000000000001      28.152000000000001                       0
   147   2      34.408000000000001      28.152000000000001                       0
   148   2      37.536000000000001      28.152000000000001                       0
   149   1      40.664000000000001      28.152000000000001                       0
   150   2      43.792000000000002      28.152000000000001                       0
   151   2                       0      31.280000000000001                       0
   152   2      3.1280000000000001      31.280000000000001                       0
   153   2      6.2560000000000002      31.280000000000001                       0
   154   1      9.3840000000000003      31.280000000000001                       0
   155   1                  12.512      31.280000000000001                       0
   156   2      15.640000000000001      31.280000000000001                       0
   157   2      18.768000000000001      31.280000000000001                       0
   158   2      21.896000000000001      31.280000000000001                       0
   159   1      25.024000000000001      31.280000000000001                       0
   160   2      28.152000000000001      31.280000000000001                       0
   161   1      31.280000000000001      31.280000000000001                       0
   162   1      34.408000000000001      31.280000000000001                       0
   163   2      37.536000000000001      31.280000000000001                       0
   164   1      40.664000000000001      31.280000000000001                       0
   165   2      43.792000000000002      31.280000000000001                       0
   166   1                       0      34.408000000000001                       0
   167   1      3.1280000000000001      34.408000000000001                       0
   168   2      6.2560000000000002      34.408000000000001                       0
   169   1      9.3840000000000003      34.408000000000001                       0
   170   2                  12.512      34.408000000000001                       0
   171   2      15.640000000000001      34.408000000000001                       0
   172   2      18.768000000000001      34.408000000000001                       0
   173   2      21.896000000000001      34.408000000000001                       0
   174   2      25.024000000000001      34.408000000000001                       0
   175   2      28.152000000000001      34.408000000000001                       0
   176   1      31.280000000000001      34.408000000000001                       0
   177   1      34.408000000000001      34.408000000000001                       0
   178   1      37.536000000000001      34.408000000000001                       0
   179   1      40.664000000000001      34.408000000000001                       0
   180   1      43.792000000000002      34.408000000000001                       0
   181   1                       0      37.536000000000001                       0
   182   1      3.1280000000000001      37.536000000000001                       0
   183   1      6.2560000000000002      37.536000000000001                       0
   184   1      9.3840000000000003      37.536000000000001                       0
   185   1                  12.512      37.536000000000001                       0
   186   1      15.640000000000001      37.536000000000001                       0
   187   1      18.768000000000001      37.536000000000001                       0
   188   2      21.896000000000001      37.536000000000001                       0
   189   1      25.024000000000001      37.536000000000001                       0
   190   2      28.152000000000001      37.536000000000001                       0
   191   2      31.280000000000001      37.536000000000001                       0
   192   2      34.408000000000001      37.536000000000001                       0
   193   2      37.536000000000001      37.536000000000001                       0
   194   2      40.664000000000001      37.536000000000001                       0
   195   1      43.792000000000002      37.536000000000001                       0
   196   2                       0      40.664000000000001                       0
   197   1      3.1280000000000001      40.664000000000001                       0
   198   2      6.2560000000000002      40.664000000000001                       0
   199   1      9.3840000000000003      40.664000000000001                       0
   200   2                  12.512      40.664000000000001                       0
   201   2      15.640000000000001      40.664000000000001                       0
   202   1      18.768000000000001      40.664000000000001                       0
   203   2      21.896000000000001      40.664000000000001                       0
   204   1      25.024000000000001      40.664000000000001                       0
   205   2      28.152000000000001      40.664000000000001                       0
   206   2      31.280000000000001      40.664000000000001                       0
   207   2      34.408000000000001      40.664000000000001                       0
   208   2      37.536000000000001      40.664000000000001                       0
   209   2      40.664000000000001      40.664000000000001                       0
   210   2      43.792000000000002      40.664000000000001                       0
   211   2                       0      43.792000000000002                       0
   212   1      3.1280000000000001      43.792000000000002                       0
   213   2      6.2560000000000002      43.792000000000002                       0
   214   2      9.3840000000000003      43.792000000000002                       0
   215   2                  12.512      43.792000000000002                       0
   216   1      15.640000000000001      43.792000000000002                       0
   217   1      18.768000000000001      43.792000000000002                       0
   218   2      21.896000000000001      43.792000000000002                       0
   219   1      25.024000000000001      43.792000000000002                       0
   220   1      28.152000000000001      43.792000000000002                       0
   221   2      31.280000000000001      43.792000000000002                       0
   222   1      34.408000000000001      43.792000000000002                       0
   223   1      37.536000000000001      43.792000000000002                       0
   224   1      40.664000000000001      43.792000000000002                       0
   225   2      43.792000000000002      43.792000000000002                       0
   226   2                       0                       0      3.1280000000000001
   227   2      3.1280000000000001                       0      3.1280000000000001
   228   1      6.2560000000000002                       0      3.1280000000000001
   229   2      9.3840000000000003                       0      3.1280000000000001
   230   1                  12.512                       0      3.1280000000000001
   231   1      15.640000000000001                       0      3.1280000000000001
   232   1      18.768000000000001                       0      3.1280000000000001
   233   2      21.896000000000001                       0      3.1280000000000001
   234   2      25.024000000000001                       0      3.1280000000000001
   235   2      28.152000000000001                       0      3.1280000000000001
   236   1      31.280000000000001                       0      3.1280000000000001
   237   2      34.408000000000001                       0      3.1280000000000001
   238   2      37.536000000000001                       0      3.1280000000000001
   239   1      40.664000000000001                       0      3.1280000000000001
   240   2      43.792000000000002                       0      3.1280000000000001
   241   1                       0      3.1280000000000001      3.1280000000000001
   242   2      3.1280000000000001      3.1280000000000001      3.1280000000000001
   243   1      6.2560000000000002      3.1280000000000001      3.1280000000000001
   244   1      9.3840000000000003      3.1280000000000001      3.1280000000000001
   245   2                  12.512      3.1280000000000001      3.1280000000000001
   246   2      15.640000000000001      3.1280000000000001      3.1280000000000001
   247   2      18.768000000000001      3.1280000000000001      3.1280000000000001
   248   2      21.896000000000001      3.1280000000000001      3.1280000000000001
   249   1      25.024000000000001      3.1280000000000001      3.1280000000000001
   250   2      28.152000000000001      3.1280000000000001      3.1280000000000001
   251   1      31.280000000000001      3.1280000000000001      3.1280000000000001
   252   2      34.408000000000001      3.1280000000000001      3.1280000000000001
   253   2      37.536000000000001      3.1280000000000001      3.1280000000000001
   254   2      40.664000000000001      3.1280000000000001      3.1280000000000001
   255   1      43.792000000000002      3.1280000000000001      3.1280000000000001
   256   2                       0      6.2560000000000002      3.1280000000000001
   257   1      3.1280000000000001      6.2560000000000002      3.1280000000000001
   258   2      6.2560000000000002      6.2560000000000002      3.1280000000000001
   259   2      9.3840000000000003      6.2560000000000002      3.1280000000000001
   260   1                  12.512      6.2560000000000002      3.1280000000000001
   261   1      15.640000000000001      6.2560000000000002      3.1280000000000001
   262   1      18.768000000000001      6.2560000000000002      3.1280000000000001
   263   1      21.896000000000001      6.2560000000000002      3.1280000000000001
   264   1      25.024000000000001      6.2560000000000002      3.1280000000000001
   265   1      28.152000000000001      6.2560000000000002      3.1280000000000001
   266   2      31.280000000000001      6.2560000000000002      3.1280000000000001
   267   1      34.408000000000001      6.2560000000000002      3.1280000000000001
   268   1      37.536000000000001      6.2560000000000002      3.1280000000000001
   269   1      40.664000000000001      6.2560000000000002      3.1280000000000001
   270   2      43.792000000000002      6.2560000000000002      3.1280000000000001
   271   2                       0      9.3840000000000003      3.1280000000000001
   272   1      3.1280000000000001      9.3840000000000003      3.1280000000000001
   273   1      6.2560000000000002      9.3840000000000003      3.1280000000000001
   274   2      9.3840000000000003      9.3840000000000003      3.1280000000000001
   275   1                  12.512      9.3840000000000003      3.1280000000000001
   276   1      15.640000000000001      9.3840000000000003      3.1280000000000001
   277   1      18.768000000000001      9.3840000000000003      3.1280000000000001
   278   2      21.896000000000001      9.3840000000000003      3.1280000000000001
   279   1      25.024000000000001      9.3840000000000003      3.1280000000000001
   280   2      28.152000000000001      9.3840000000000003      3.1280000000000001
   281   2      31.280000000000001      9.3840000000000003      3.1280000000000001
   282   2      34.408000000000001      9.3840000000000003      3.1280000000000001
   283   2      37.536000000000001      9.3840000000000003      3.1280000000000001
   284   1      40.664000000000001      9.3840000000000003      3.1280000000000001
   285   2      43.792000000000002      9.3840000000000003      3.1280000000000001
   286   2                       0                  12.512      3.1280000000000001
   287   2      3.1280000000000001                  12.512      3.1280000000000001
   288   2      6.2560000000000002                  12.512      3.1280000000000001
   289   1      9.3840000000000003                  12.512      3.1280000000000001
   290   2                  12.512                  12.512      3.1280000000000001
   291   2      15.640000000000001                  12.512      3.1280000000000001
   292   2      18.768000000000001                  12.512      3.1280000000000001
   293   1      21.896000000000001                  12.512      3.1280000000000001
   294   1      25.024000000000001                  12.512      3.1280000000000001
   295   2      28.152000000000001                  12.512      3.1280000000000001
   296   1      31.280000000000001                  12.512      3.1280000000000001
   297   1      34.408000000000001                  12.512      3.1280000000000001
   298   1      37.536000000000001                  12.512      3.1280000000000001
   299   1      40.664000000000001                  12.512      3.1280000000000001
   300   2      43.792000000000002                  12.512      3.1280000000000001
   301   1                       0      15.640000000000001      3.1280000000000001
   302   2      3.1280000000000001      15.640000000000001      3.1280000000000001
   303   1      6.2560000000000002      15.640000000000001      3.1280000000000001
   304   1      9.3840000000000003      15.640000000000001      3.1280000000000001
   305   2                  12.512      15.640000000000001      3.1280000000000001
   306   1      15.640000000000001      15.640000000000001      3.1280000000000001
   307   1      18.768000000000001      15.640000000000001      3.1280000000000001
   308   2      21.896000000000001      15.640000000000001      3.1280000000000001
   309   1      25.024000000000001      15.640000000000001      3.1280000000000001
   310   1      28.152000000000001      15.640000000000001      3.1280000000000001
   311   1      31.280000000000001      15.640000000000001      3.1280000000000001
   312   1      34.408000000000001      15.640000000000001      3.1280000000000001
   313   1      37.536000000000001      15.640000000000001      3.1280000000000001
   314   1      40.664000000000001      15.640000000000001      3.1280000000000001
   315   1      43.792000000000002      15.640000000000001      3.1280000000000001
   316   2                       0      18.768000000000001      3.1280000000000001
   317   1      3.1280000000000001      18.768000000000001      3.1280000000000001
   318   2      6.2560000000000002      18.768000000000001      3.1280000000000001
   319   2      9.3840000000000003      18.768000000000001      3.1280000000000001
   320   2                  12.512      18.768000000000001      3.1280000000000001
   321   2      15.640000000000001      18.768000000000001      3.1280000000000001
   322   1      18.768000000000001      18.768000000000001      3.1280000000000001
   323   2      21.896000000000001      18.768000000000001      3.1280000000000001
   324   2      25.024000000000001      18.768000000000001      3.1280000000000001
   325   1      28.152000000000001      18.768000000000001      3.1280000000000001
   326   2      31.280000000000001      18.768000000000001      3.1280000000000001
   327   2      34.408000000000001      18.768000000000001      3.1280000000000001
   328   2      37.536000000000001      18.768000000000001      3.1280000000000001
   329   1      40.664000000000001      18.768000000000001      3.1280000000000001
   330   1      43.792000000000002      18.768000000000001      3.1280000000000001
   331   1                       0      21.896000000000001      3.1280000000000001
   332   1      3.1280000000000001      21.896000000000001      3.1280000000000001
   333   1      6.2560000000000002      21.896000000000001      3.1280000000000001
   334   1      9.3840000000000003      21.896000000000001      3.1280000000000001
   335   1                  12.512      21.896000000000001      3.1280000000000001
   336   2      15.640000000000001      21.896000000000001      3.1280000000000001
   337   2      18.768000000000001      21.896000000000001      3.1280000000000001
   338   1      21.896000000000001      21.896000000000001      3.1280000000000001
   339   2      25.024000000000001      21.896000000000001      3.1280000000000001
   340   1      28.152000000000001      21.896000000000001      3.1280000000000001
   341   2      31.280000000000001      21.896000000000001      3.1280000000000001
   342   2      34.408000000000001      21.896000000000001      3.1280000000000001
   343   2      37.536000000000001      21.896000000000001      3.1280000000000001
   344   1      40.664000000000001      21.896000000000001      3.1280000000000001
   345   2      43.792000000000002      21.896000000000001      3.1280000000000001
   346   1                       0      25.024000000000001      3.1280000000000001
   347   2      3.1280000000000001      25.024000000000001      3.1280000000000001
   348   2      6.2560000000000002      25.024000000000001      3.1280000000000001
   349   2      9.3840000000000003      25.024000000000001      3.1280000000000001
   350   1                  12.512      25.024000000000001      3.1280000000000001
   351   2      15.640000000000001      25.024000000000001      3.1280000000000001
   352   2      18.768000000000001      25.024000000000001      3.1280000000000001
   353   2      21.896000000000001      25.024000000000001      3.1280000000000001
   354   1      25.024000000000001      25.024000000000001      3.1280000000000001
   355   2      28.152000000000001      25.024000000000001      3.1280000000000001
   356   2      31.280000000000001      25.024000000000001      3.1280000000000001
   357   2      34.408000000000001      25.024000000000001      3.1280000000000001
   358   2      37.536000000000001      25.024000000000001      3.1280000000000001
   359   2      40.664000000000001      25.024000000000001      3.1280000000000001