(written by ASE)

11664 atoms
5 atom types

0.0      56.304000000000002  xlo xhi
0.0      56.304000000000002  ylo yhi
0.0      56.304000000000002  zlo zhi

Atoms # atomic

     1   1                       0                       0                       0
     2   2      3.1280000000000001                       0                       0
     3   2      6.2560000000000002                       0                       0
     4   1      9.3840000000000003                       0                       0
     5   2                  12.512                       0                       0
     6   2      15.640000000000001                       0                       0
     7   1      18.768000000000001                       0                       0
     8   2      21.896000000000001                       0                       0
     9   1      25.024000000000001                       0                       0
    10   2      28.152000000000001                       0                       0
    11   1      31.280000000000001                       0                       0
    12   2      34.408000000000001                       0                       0
    13   1      37.536000000000001                       0                       0
    14   2      40.664000000000001                       0                       0
    15   2      43.792000000000002                       0                       0
    16   2      46.920000000000002                       0                       0
    17   2      50.048000000000002                       0                       0
    18   2      53.176000000000002                       0                       0
    19   1                       0      3.1280000000000001                       0
    20   1      3.1280000000000001      3.1280000000000001                       0
    21   2      6.2560000000000002      3.1280000000000001                       0
    22   1      9.3840000000000003      3.1280000000000001                       0
    23   2                  12.512      3.1280000000000001                       0
    24   2      15.640000000000001      3.1280000000000001                       0
    25   1      18.768000000000001      3.1280000000000001                       0
    26   2      21.896000000000001      3.1280000000000001                       0
    27   1      25.024000000000001      3.1280000000000001                       0
    28   1      28.152000000000001      3.1280000000000001                       0
    29   2      31.280000000000001      3.1280000000000001                       0
    30   1      34.408000000000001      3.1280000000000001                       0
    31   1      37.536000000000001      3.1280000000000001                       0
    32   2      40.664000000000001      3.1280000000000001                       0
    33   2      43.792000000000002      3.1280000000000001                       0
    34   1      46.920000000000002      3.1280000000000001                       0
    35   2      50.048000000000002      3.1280000000000001                       0
    36   1      53.176000000000002      3.1280000000000001                       0
    37   1                       0      6.2560000000000002                       0
    38   2      3.1280000000000001      6.2560000000000002                       0
    39   2      6.2560000000000002      6.2560000000000002                       0
    40   1      9.3840000000000003      6.2560000000000002                       0
    41   1                  12.512      6.2560000000000002                       0
    42   1      15.640000000000001      6.2560000000000002                       0
    43   1      18.768000000000001      6.2560000000000002                       0
    44   2      21.896000000000001      6.2560000000000002                       0
    45   1      25.024000000000001      6.2560000000000002                       0
    46   2      28.152000000000001      6.2560000000000002                       0
    47   2      31.280000000000001      6.2560000000000002                       0
    48   2      34.408000000000001      6.2560000000000002                       0
    49   1      37.536000000000001      6.2560000000000002                       0
    50   1      40.664000000000001      6.2560000000000002                       0
    51   1      43.792000000000002      6.2560000000000002                       0
    52   2      46.920000000000002      6.2560000000000002                       0
    53   2      50.048000000000002      6.2560000000000002                       0
    54   2      53.176000000000002      6.2560000000000002                       0
    55   1                       0      9.3840000000000003                       0
    56   1      3.1280000000000001      9.3840000000000003                       0
    57   2      6.2560000000000002      9.3840000000000003                       0
    58   1      9.3840000000000003      9.3840000000000003                       0
    59   1                  12.512      9.3840000000000003                       0
    60   1      15.640000000000001      9.3840000000000003                       0
    61   2      18.768000000000001      9.3840000000000003                       0
    62   2      21.896000000000001      9.3840000000000003                       0
    63   2      25.024000000000001      9.3840000000000003                       0
    64   1      28.152000000000001      9.3840000000000003                       0
    65   2      31.280000000000001      9.3840000000000003                       0
    66   2      34.408000000000001      9.3840000000000003                       0
    67   2      37.536000000000001      9.3840000000000003                       0
    68   2      40.664000000000001      9.3840000000000003                       0
    69   2      43.792000000000002      9.3840000000000003                       0
    70   2      46.920000000000002      9.3840000000000003                       0
    71   1      50.048000000000002      9.3840000000000003                       0
    72   2      53.176000000000002      9.3840000000000003                       0
    73   2                       0                  12.512                       0
    74   1      3.1280000000000001                  12.512                       0
    75   1      6.2560000000000002                  12.512                       0
    76   2      9.3840000000000003                  12.512                       0
    77   1                  12.512                  12.512                       0
    78   1      15.640000000000001                  12.512                       0
    79   1      18.768000000000001                  12.512                       0
    80   2      21.896000000000001                  12.512                       0
    81   2      25.024000000000001                  12.512                       0
    82   1      28.152000000000001                  12.512                       0
    83   2      31.280000000000001                  12.512                       0
    84   2      34.408000000000001                  12.512                       0
    85   1      37.536000000000001                  12.512                       0
    86   1      40.664000000000001                  12.512                       0
    87   2      43.792000000000002                  12.512                       0
    88   1      46.920000000000002                  12.512                       0
    89   1      50.048000000000002                  12.512                       0
    90   2      53.176000000000002                  12.512                       0
    91   1                       0      15.640000000000001                       0
    92   1      3.1280000000000001      15.640000000000001                       0
    93   2      6.2560000000000002      15.640000000000001                       0
    94   2      9.3840000000000003      15.640000000000001                       0
    95   2                  12.512      15.640000000000001                       0
    96   1      15.640000000000001      15.640000000000001                       0
    97   2      18.768000000000001      15.640000000000001                       0
    98   2      21.896000000000001      15.640000000000001                       0
    99   1      25.024000000000001      15.640000000000001                       0
   100   1      28.152000000000001      15.640000000000001                       0
   101   2      31.280000000000001      15.640000000000001                       0
   102   2      34.408000000000001      15.640000000000001                       0
   103   1      37.536000000000001      15.640000000000001                       0
   104   2      40.664000000000001      15.640000000000001                       0
   105   1      43.792000000000002      15.640000000000001                       0
   106   1      46.920000000000002      15.640000000000001                       0
   107   1      50.048000000000002      15.640000000000001                       0
   108   2      53.176000000000002      15.640000000000001                       0
   109   2                       0      18.768000000000001                       0
   110   2      3.1280000000000001      18.768000000000001                       0
   111   2      6.2560000000000002      18.768000000000001                       0
   112   2      9.3840000000000003      18.768000000000001                       0
   113   2                  12.512      18.768000000000001                       0
   114   2      15.640000000000001      18.768000000000001                       0
   115   2      18.768000000000001      18.768000000000001                       0
   116   2      21.896000000000001      18.768000000000001                       0
   117   1      25.024000000000001      18.768000000000001                       0
   118   1      28.152000000000001      18.768000000000001                       0
   119   1      31.280000000000001      18.768000000000001                       0
   120   2      34.408000000000001      18.768000000000001                       0
   121   1      37.536000000000001      18.768000000000001                       0
   122   1      40.664000000000001      18.768000000000001                       0
   123   1      43.792000000000002      18.768000000000001                       0
   124   2      46.920000000000002      18.768000000000001                       0
   125   2      50.048000000000002      18.768000000000001                       0
   126   1      53.176000000000002      18.768000000000001                       0
   127   1                       0      21.896000000000001                       0
   128   1      3.1280000000000001      21.896000000000001                       0
   129   1      6.2560000000000002      21.896000000000001                       0
   130   1      9.3840000000000003      21.896000000000001                       0
   131   2                  12.512      21.896000000000001                       0
   132   2      15.640000000000001      21.896000000000001                       0
   133   1      18.768000000000001      21.896000000000001                       0
   134   2      21.896000000000001      21.896000000000001                       0
   135   1      25.024000000000001      21.896000000000001                       0
   136   2      28.152000000000001      21.896000000000001                       0
   137   2      31.280000000000001      21.896000000000001                       0
   138   1      34.408000000000001      21.896000000000001                       0
   139   1      37.536000000000001      21.896000000000001                       0
   140   1      40.664000000000001      21.896000000000001                       0
   141   2      43.792000000000002      21.896000000000001                       0
   142   2      46.920000000000002      21.896000000000001                       0
   143   1      50.048000000000002      21.896000000000001                       0
   144   1      53.176000000000002      21.896000000000001                       0
   145   2                       0      25.024000000000001                       0
   146   2      3.1280000000000001      25.024000000000001                       0
   147   1      6.2560000000000002      25.024000000000001                       0
   148   1      9.3840000000000003      25.024000000000001                       0
   149   2                  12.512      25.024000000000001                       0
   150   1      15.640000000000001      25.024000000000001                       0
   151   2      18.768000000000001      25.024000000000001                       0
   152   2      21.896000000000001      25.024000000000001                       0
   153   2      25.024000000000001      25.024000000000001                       0
   154   2      28.152000000000001      25.024000000000001                       0
   155   2      31.280000000000001      25.024000000000001                       0
   156   2      34.408000000000001      25.024000000000001                       0
   157   2      37.536000000000001      25.024000000000001                       0
   158   2      40.664000000000001      25.024000000000001                       0
   159   2      43.792000000000002      25.024000000000001                       0
   160   1      46.920000000000002      25.024000000000001                       0
   161   1      50.048000000000002      25.024000000000001                       0
   162   2      53.176000000000002      25.024000000000001                       0
   163   1                       0      28.152000000000001                       0
   164   2      3.1280000000000001      28.152000000000001                       0
   165   2      6.2560000000000002      28.152000000000001                       0
   166   2      9.3840000000000003      28.152000000000001                       0
   167   2                  12.512      28.152000000000001                       0
   168   1      15.640000000000001      28.152000000000001                       0
   169   2      18.768000000000001      28.152000000000001                       0
   170   1      21.896000000000001      28.152000000000001                       0
   171   2      25.024000000000001      28.152000000000001                       0
   172   2      28.152000000000001      28.152000000000001                       0
   173   2      31.280000000000001      28.152000000000001                       0
   174   2      34.408000000000001      28.152000000000001                       0
   175   2      37.536000000000001      28.152000000000001                       0
   176   2      40.664000000000001      28.152000000000001                       0
   177   2      43.792000000000002      28.152000000000001                       0
   178   2      46.920000000000002      28.152000000000001                       0
   179   1      50.048000000000002      28.152000000000001                       0
   180   1      53.176000000000002      28.152000000000001                       0
   181   1                       0      31.280000000000001                       0
   182   1      3.1280000000000001      31.280000000000001                       0
   183   2      6.2560000000000002      31.280000000000001                       0
   184   1      9.3840000000000003      31.280000000000001                       0
   185   1                  12.512      31.280000000000001                       0
   186   1      15.640000000000001      31.280000000000001                       0
   187   1      18.768000000000001      31.280000000000001                       0
   188   1      21.896000000000001      31.280000000000001                       0
   189   1      25.024000000000001      31.280000000000001                       0
   190   2      28.152000000000001      31.280000000000001                       0
   191   1      31.280000000000001      31.280000000000001                       0
   192   1      34.408000000000001      31.280000000000001                       0
   193   1      37.536000000000001      31.280000000000001                       0
   194   1      40.664000000000001      31.280000000000001                       0
   195   2      43.792000000000002      31.280000000000001                       0
   196   2      46.920000000000002      31.280000000000001                       0
   197   1      50.048000000000002      31.280000000000001                       0
   198   2      53.176000000000002      31.280000000000001                       0
   199   1                       0      34.408000000000001                       0
   200   1      3.1280000000000001      34.408000000000001                       0
   201   1      6.2560000000000002      34.408000000000001                       0
   202   2      9.3840000000000003      34.408000000000001                       0
   203   2                  12.512      34.408000000000001                       0
   204   2      15.640000000000001      34.408000000000001                       0
   205   2      18.768000000000001      34.408000000000001                       0
   206   1      21.896000000000001      34.408000000000001                       0
   207   1      25.024000000000001      34.408000000000001                       0
   208   1      28.152000000000001      34.408000000000001                       0
   209   2      31.280000000000001      34.408000000000001                       0
   210   1      34.408000000000001      34.408000000000001                       0
   211   1      37.536000000000001      34.408000000000001                       0
   212   1      40.664000000000001      34.408000000000001                       0
   213   2      43.792000000000002      34.408000000000001                       0
   214   1      46.920000000000002      34.408000000000001                       0
   215   2      50.048000000000002      34.408000000000001                       0
   216   2      53.176000000000002      34.408000000000001                       0
   217   2                       0      37.536000000000001                       0
   218   2      3.1280000000000001      37.536000000000001                       0
   219   1      6.2560000000000002      37.536000000000001                       0
   220   1      9.3840000000000003      37.536000000000001                       0
   221   2                  12.512      37.536000000000001                       0
   222   2      15.640000000000001      37.536000000000001                       0
   223   1      18.768000000000001      37.536000000000001                       0
   224   2      21.896000000000001      37.536000000000001                       0
   225   2      25.024000000000001      37.536000000000001                       0
   226   1      28.152000000000001      37.536000000000001                       0
   227   1      31.280000000000001      37.536000000000001                       0
   228   1      34.408000000000001      37.536000000000001                       0
   229   1      37.536000000000001      37.536000000000001                       0
   230   2      40.664000000000001      37.536000000000001                       0
   231   1      43.792000000000002      37.536000000000001                       0
   232   1      46.920000000000002      37.536000000000001                       0
   233   2      50.048000000000002      37.536000000000001                       0
   234   2      53.176000000000002      37.536000000000001                       0
   235   2                       0      40.664000000000001                       0
   236   1      3.1280000000000001      40.664000000000001                       0
   237   1      6.2560000000000002      40.664000000000001                       0
   238   1      9.3840000000000003      40.664000000000001                       0
   239   1                  12.512      40.664000000000001                       0
   240   1      15.640000000000001      40.664000000000001                       0
   241   2      18.768000000000001      40.664000000000001                       0
   242   2      21.896000000000001      40.664000000000001                       0
   243   1      25.024000000000001      40.664000000000001                       0
   244   1      28.152000000000001      40.664000000000001                       0
   245   1      31.280000000000001      40.664000000000001                       0
   246   1      34.408000000000001      40.664000000000001                       0
   247   1      37.536000000000001      40.664000000000001                       0
   248   1      40.664000000000001      40.664000000000001                       0
   249   1      43.792000000000002      40.664000000000001                       0
   250   1      46.920000000000002      40.664000000000001                       0
   251   2      50.048000000000002      40.664000000000001                       0
   252   1      53.176000000000002      40.664000000000001                       0
   253   1                       0      43.792000000000002                       0
   254   2      3.1280000000000001      43.792000000000002                       0
   255   1      6.2560000000000002      43.792000000000002                       0
   256   1      9.3840000000000003      43.792000000000002                       0
   257   1                  12.512      43.792000000000002                       0
   258   1      15.640000000000001      43.792000000000002                       0
   259   1      18.768000000000001      43.792000000000002                       0
   260   2      21.896000000000001      43.792000000000002                       0
   261   2      25.024000000000001      43.792000000000002                       0
   262   2      28.152000000000001      43.792000000000002                       0
   263   1      31.280000000000001      43.792000000000002                       0
   264   2      34.408000000000001      43.792000000000002                       0
   265   2      37.536000000000001      43.792000000000002                       0
   266   1      40.664000000000001      43.792000000000002                       0
   267   1      43.792000000000002      43.792000000000002                       0
   268   1      46.920000000000002      43.792000000000002                       0
   269   1      50.048000000000002      43.792000000000002                       0
   270   1      53.176000000000002      43.792000000000002                       0
   271   2                       0      46.920000000000002                       0
   272   1      3.1280000000000001      46.920000000000002                       0
   273   1      6.2560000000000002      46.920000000000002                       0
   274   1      9.3840000000000003      46.920000000000002                       0
   275   1                  12.512      46.920000000000002                       0
   276   1      15.640000000000001      46.920000000000002                       0
   277   1      18.768000000000001      46.920000000000002                       0
   278   1      21.896000000000001      46.920000000000002                       0
   279   1      25.024000000000001      46.920000000000002                       0
   280   1      28.152000000000001      46.920000000000002                       0
   281   1      31.280000000000001      46.920000000000002                       0
   282   1      34.408000000000001      46.920000000000002                       0
   283   2      37.536000000000001      46.920000000000002                       0
   284   2      40.664000000000001      46.920000000000002                       0
   285   1      43.792000000000002      46.920000000000002                       0
   286   1      46.920000000000002      46.920000000000002                       0
   287   2      50.048000000000002      46.920000000000002                       0
   288   1      53.176000000000002      46.920000000000002                       0
   289   1                       0      50.048000000000002                       0
   290   2      3.1280000000000001      50.048000000000002                       0
   291   1      6.2560000000000002      50.048000000000002                       0
   292   1      9.3840000000000003      50.048000000000002                       0
   293   2                  12.512      50.048000000000002                       0
   294   1      15.640000000000001      50.048000000000002                       0
   295   1      18.768000000000001      50.048000000000002                       0
   296   2      21.896000000000001      50.048000000000002                       0
   297   2      25.024000000000001      50.048000000000002                       0
   298   1      28.152000000000001      50.048000000000002                       0
   299   2      31.280000000000001      50.048000000000002                       0
   300   2      34.408000000000001      50.048000000000002                       0
   301   2      37.536000000000001      50.048000000000002                       0
   302   2      40.664000000000001      50.048000000000002                       0
   303   1      43.792000000000002      50.048000000000002                       0
   304   2      46.920000000000002      50.048000000000002                       0
   305   1      50.048000000000002      50.048000000000002                       0
   306   1      53.176000000000002      50.048000000000002                       0
   307   1                       0      53.176000000000002                       0
   308   1      3.1280000000000001      53.176000000000002                       0
   309   2      6.2560000000000002      53.176000000000002                       0
   310   1      9.3840000000000003      53.176000000000002                       0
   311   2                  12.512      53.176000000000002                       0
   312   2      15.640000000000001      53.176000000000002                       0
   313   1      18.768000000000001      53.176000000000002                       0
   314   2      21.896000000000001      53.176000000000002                       0
   315   2      25.024000000000001      53.176000000000002                       0
   316   2      28.152000000000001      53.176000000000002                       0
   317   1      31.280000000000001      53.176000000000002                       0
   318   2      34.408000000000001      53.176000000000002                       0
   319   2      37.536000000000001      53.176000000000002                       0
   320   2      40.664000000000001      53.176000000000002                       0
   321   2      43.792000000000002      53.176000000000002                       0
   322   1      46.920000000000002      53.176000000000002                       0
   323   2      50.048000000000002      53.176000000000002                       0
   324   2      53.176000000000002      53.176000000000002                       0
   325   2                       0                       0      3.1280000000000001
   326   1      3.1280000000000001                       0      3.1280000000000001
   327   1      6.2560000000000002                       0      3.1280000000000001
   328   1      9.3840000000000003                       0      3.1280000000000001
   329   1                  12.512                       0      3.1280000000000001
   330   1      15.640000000000001                       0      3.1280000000000001
   331   1      18.768000000000001                       0      3.1280000000000001
   332   1      21.896000000000001                       0      3.1280000000000001
   333   1      25.024000000000001                       0      3.1280000000000001
   334   2      28.152000000000001                       0      3.1280000000000001
   335   2      31.280000000000001                       0      3.1280000000000001
   336   1      34.408000000000001                       0      3.1280000000000001
   337   2      37.536000000000001                       0      3.1280000000000001
   338   2      40.664000000000001                       0      3.1280000000000001
   339   2      43.792000000000002                       0      3.1280000000000001
   340   2      46.920000000000002                       0      3.1280000000000001
   341   1      50.048000000000002                       0      3.1280000000000001
   342   2      53.176000000000002                       0      3.1280000000000001
   343   1                       0      3.1280000000000001      3.1280000000000001
   344   1      3.1280000000000001      3.1280000000000001      3.1280000000000001
   345   2      6.2560000000000002      3.1280000000000001      3.1280000000000001
   346   2      9.3840000000000003      3.1280000000000001      3.1280000000000001
   347   2                  12.512      3.1280000000000001      3.1280000000000001
   348   1      15.640000000000001      3.1280000000000001      3.1280000000000001
   349   2      18.768000000000001      3.1280000000000001      3.1280000000000001
   350   1      21.896000000000001      3.1280000000000001      3.1280000000000001
   351   1      25.024000000000001      3.1280000000000001      3.1280000000000001
   352   2      28.152000000000001      3.1280000000000001      3.1280000000000001
   353   1      31.280000000000001      3.1280000000000001      3.1280000000000001
   354   2      34.408000000000001      3.1280000000000001      3.1280000000000001
   355   1      37.536000000000001      3.1280000000000001      3.1280000000000001
   356   1      40.664000000000001      3.1280000000000001      3.1280000000000001
   357   1      43.792000000000002      3.1280000000000001      3.1280000000000001
   358   1      46.920000000000002      3.1280000000000001      3.1280000000000001
   359   2      50.048000000000002      3.1280000000000001      3.1280000000000001