(written by ASE)

16 atoms
5 atom types

0.0      6.2560000000000002  xlo xhi
0.0      6.2560000000000002  ylo yhi
0.0      6.2560000000000002  zlo zhi

Atoms # atomic

     1   2                       0                       0                       0
     2   1      3.1280000000000001                       0                       0
     3   2                       0      3.1280000000000001                       0
     4   1      3.1280000000000001      3.1280000000000001                       0
     5   1                       0                       0      3.1280000000000001
     6   2      3.1280000000000001                       0      3.1280000000000001
     7   2                       0      3.1280000000000001      3.1280000000000001
     8   1      3.1280000000000001      3.1280000000000001      3.1280000000000001
     9   4      1.5640000000000001      1.5640000000000001      1.5640000000000001
    10   5      4.6920000000000002      1.5640000000000001      1.5640000000000001
    11   3      1.5640000000000001      4.6920000000000002      1.5640000000000001
    12   3      4.6920000000000002      4.6920000000000002      1.5640000000000001
    13   3      1.5640000000000001      1.5640000000000001      4.6920000000000002
    14   3      4.6920000000000002      1.5640000000000001      4.6920000000000002
    15   5      1.5640000000000001      4.6920000000000002      4.6920000000000002
    16   4      4.6920000000000002      4.6920000000000002      4.6920000000000002
