./HEA_I.lmp (written by ASE) 

3456 	 atoms 
5  atom types
0.0      37.536000000000001  xlo xhi
0.0      37.536000000000001  ylo yhi
0.0      37.536000000000001  zlo zhi


Atoms 

     1   5                       0                       0                       0
     2   1      3.1280000000000001                       0                       0
     3   2      6.2560000000000002                       0                       0
     4   1      9.3840000000000003                       0                       0
     5   3                  12.512                       0                       0
     6   4      15.640000000000001                       0                       0
     7   2      18.768000000000001                       0                       0
     8   4      21.896000000000001                       0                       0
     9   3      25.024000000000001                       0                       0
    10   1      28.152000000000001                       0                       0
    11   1      31.280000000000001                       0                       0
    12   3      34.408000000000001                       0                       0
    13   1                       0      3.1280000000000001                       0
    14   5      3.1280000000000001      3.1280000000000001                       0
    15   1      6.2560000000000002      3.1280000000000001                       0
    16   3      9.3840000000000003      3.1280000000000001                       0
    17   3                  12.512      3.1280000000000001                       0
    18   1      15.640000000000001      3.1280000000000001                       0
    19   1      18.768000000000001      3.1280000000000001                       0
    20   4      21.896000000000001      3.1280000000000001                       0
    21   1      25.024000000000001      3.1280000000000001                       0
    22   2      28.152000000000001      3.1280000000000001                       0
    23   5      31.280000000000001      3.1280000000000001                       0
    24   3      34.408000000000001      3.1280000000000001                       0
    25   2                       0      6.2560000000000002                       0
    26   2      3.1280000000000001      6.2560000000000002                       0
    27   3      6.2560000000000002      6.2560000000000002                       0
    28   2      9.3840000000000003      6.2560000000000002                       0
    29   3                  12.512      6.2560000000000002                       0
    30   2      15.640000000000001      6.2560000000000002                       0
    31   1      18.768000000000001      6.2560000000000002                       0
    32   5      21.896000000000001      6.2560000000000002                       0
    33   3      25.024000000000001      6.2560000000000002                       0
    34   1      28.152000000000001      6.2560000000000002                       0
    35   1      31.280000000000001      6.2560000000000002                       0
    36   5      34.408000000000001      6.2560000000000002                       0
    37   5                       0      9.3840000000000003                       0
    38   4      3.1280000000000001      9.3840000000000003                       0
    39   5      6.2560000000000002      9.3840000000000003                       0
    40   3      9.3840000000000003      9.3840000000000003                       0
    41   5                  12.512      9.3840000000000003                       0
    42   5      15.640000000000001      9.3840000000000003                       0
    43   5      18.768000000000001      9.3840000000000003                       0
    44   5      21.896000000000001      9.3840000000000003                       0
    45   2      25.024000000000001      9.3840000000000003                       0
    46   1      28.152000000000001      9.3840000000000003                       0
    47   3      31.280000000000001      9.3840000000000003                       0
    48   3      34.408000000000001      9.3840000000000003                       0
    49   5                       0                  12.512                       0
    50   3      3.1280000000000001                  12.512                       0
    51   5      6.2560000000000002                  12.512                       0
    52   1      9.3840000000000003                  12.512                       0
    53   3                  12.512                  12.512                       0
    54   1      15.640000000000001                  12.512                       0
    55   3      18.768000000000001                  12.512                       0
    56   5      21.896000000000001                  12.512                       0
    57   2      25.024000000000001                  12.512                       0
    58   4      28.152000000000001                  12.512                       0
    59   4      31.280000000000001                  12.512                       0
    60   5      34.408000000000001                  12.512                       0
    61   4                       0      15.640000000000001                       0
    62   1      3.1280000000000001      15.640000000000001                       0
    63   3      6.2560000000000002      15.640000000000001                       0
    64   3      9.3840000000000003      15.640000000000001                       0
    65   5                  12.512      15.640000000000001                       0
    66   5      15.640000000000001      15.640000000000001                       0
    67   3      18.768000000000001      15.640000000000001                       0
    68   1      21.896000000000001      15.640000000000001                       0
    69   4      25.024000000000001      15.640000000000001                       0
    70   1      28.152000000000001      15.640000000000001                       0
    71   1      31.280000000000001      15.640000000000001                       0
    72   3      34.408000000000001      15.640000000000001                       0
    73   3                       0      18.768000000000001                       0
    74   2      3.1280000000000001      18.768000000000001                       0
    75   3      6.2560000000000002      18.768000000000001                       0
    76   1      9.3840000000000003      18.768000000000001                       0
    77   3                  12.512      18.768000000000001                       0
    78   1      15.640000000000001      18.768000000000001                       0
    79   1      18.768000000000001      18.768000000000001                       0
    80   4      21.896000000000001      18.768000000000001                       0
    81   2      25.024000000000001      18.768000000000001                       0
    82   3      28.152000000000001      18.768000000000001                       0
    83   1      31.280000000000001      18.768000000000001                       0
    84   4      34.408000000000001      18.768000000000001                       0
    85   4                       0      21.896000000000001                       0
    86   3      3.1280000000000001      21.896000000000001                       0
    87   1      6.2560000000000002      21.896000000000001                       0
    88   2      9.3840000000000003      21.896000000000001                       0
    89   5                  12.512      21.896000000000001                       0
    90   2      15.640000000000001      21.896000000000001                       0
    91   1      18.768000000000001      21.896000000000001                       0
    92   1      21.896000000000001      21.896000000000001                       0
    93   4      25.024000000000001      21.896000000000001                       0
    94   1      28.152000000000001      21.896000000000001                       0
    95   1      31.280000000000001      21.896000000000001                       0
    96   2      34.408000000000001      21.896000000000001                       0
    97   3                       0      25.024000000000001                       0
    98   1      3.1280000000000001      25.024000000000001                       0
    99   1      6.2560000000000002      25.024000000000001                       0
   100   2      9.3840000000000003      25.024000000000001                       0
   101   5                  12.512      25.024000000000001                       0
   102   1      15.640000000000001      25.024000000000001                       0
   103   5      18.768000000000001      25.024000000000001                       0
   104   2      21.896000000000001      25.024000000000001                       0
   105   4      25.024000000000001      25.024000000000001                       0
   106   4      28.152000000000001      25.024000000000001                       0
   107   2      31.280000000000001      25.024000000000001                       0
   108   1      34.408000000000001      25.024000000000001                       0
   109   1                       0      28.152000000000001                       0
   110   1      3.1280000000000001      28.152000000000001                       0
   111   2      6.2560000000000002      28.152000000000001                       0
   112   2      9.3840000000000003      28.152000000000001                       0
   113   1                  12.512      28.152000000000001                       0
   114   5      15.640000000000001      28.152000000000001                       0
   115   3      18.768000000000001      28.152000000000001                       0
   116   4      21.896000000000001      28.152000000000001                       0
   117   4      25.024000000000001      28.152000000000001                       0
   118   4      28.152000000000001      28.152000000000001                       0
   119   5      31.280000000000001      28.152000000000001                       0
   120   2      34.408000000000001      28.152000000000001                       0
   121   3                       0      31.280000000000001                       0
   122   4      3.1280000000000001      31.280000000000001                       0
   123   1      6.2560000000000002      31.280000000000001                       0
   124   5      9.3840000000000003      31.280000000000001                       0
   125   1                  12.512      31.280000000000001                       0
   126   3      15.640000000000001      31.280000000000001                       0
   127   5      18.768000000000001      31.280000000000001                       0
   128   3      21.896000000000001      31.280000000000001                       0
   129   3      25.024000000000001      31.280000000000001                       0
   130   3      28.152000000000001      31.280000000000001                       0
   131   2      31.280000000000001      31.280000000000001                       0
   132   3      34.408000000000001      31.280000000000001                       0
   133   3                       0      34.408000000000001                       0
   134   4      3.1280000000000001      34.408000000000001                       0
   135   5      6.2560000000000002      34.408000000000001                       0
   136   4      9.3840000000000003      34.408000000000001                       0
   137   1                  12.512      34.408000000000001                       0
   138   2      15.640000000000001      34.408000000000001                       0
   139   1      18.768000000000001      34.408000000000001                       0
   140   3      21.896000000000001      34.408000000000001                       0
   141   4      25.024000000000001      34.408000000000001                       0
   142   5      28.152000000000001      34.408000000000001                       0
   143   5      31.280000000000001      34.408000000000001                       0
   144   3      34.408000000000001      34.408000000000001                       0
   145   3                       0                       0      3.1280000000000001
   146   2      3.1280000000000001                       0      3.1280000000000001
   147   5      6.2560000000000002                       0      3.1280000000000001
   148   2      9.3840000000000003                       0      3.1280000000000001
   149   4                  12.512                       0      3.1280000000000001
   150   1      15.640000000000001                       0      3.1280000000000001
   151   1      18.768000000000001                       0      3.1280000000000001
   152   3      21.896000000000001                       0      3.1280000000000001
   153   3      25.024000000000001                       0      3.1280000000000001
   154   1      28.152000000000001                       0      3.1280000000000001
   155   2      31.280000000000001                       0      3.1280000000000001
   156   5      34.408000000000001                       0      3.1280000000000001
   157   3                       0      3.1280000000000001      3.1280000000000001
   158   1      3.1280000000000001      3.1280000000000001      3.1280000000000001
   159   3      6.2560000000000002      3.1280000000000001      3.1280000000000001
   160   3      9.3840000000000003      3.1280000000000001      3.1280000000000001
   161   3                  12.512      3.1280000000000001      3.1280000000000001
   162   4      15.640000000000001      3.1280000000000001      3.1280000000000001
   163   4      18.768000000000001      3.1280000000000001      3.1280000000000001
   164   2      21.896000000000001      3.1280000000000001      3.1280000000000001
   165   2      25.024000000000001      3.1280000000000001      3.1280000000000001
   166   3      28.152000000000001      3.1280000000000001      3.1280000000000001
   167   5      31.280000000000001      3.1280000000000001      3.1280000000000001
   168   3      34.408000000000001      3.1280000000000001      3.1280000000000001
   169   1                       0      6.2560000000000002      3.1280000000000001
   170   3      3.1280000000000001      6.2560000000000002      3.1280000000000001
   171   4      6.2560000000000002      6.2560000000000002      3.1280000000000001
   172   2      9.3840000000000003      6.2560000000000002      3.1280000000000001
   173   3                  12.512      6.2560000000000002      3.1280000000000001
   174   2      15.640000000000001      6.2560000000000002      3.1280000000000001
   175   5      18.768000000000001      6.2560000000000002      3.1280000000000001
   176   2      21.896000000000001      6.2560000000000002      3.1280000000000001
   177   5      25.024000000000001      6.2560000000000002      3.1280000000000001
   178   5      28.152000000000001      6.2560000000000002      3.1280000000000001
   179   3      31.280000000000001      6.2560000000000002      3.1280000000000001
   180   5      34.408000000000001      6.2560000000000002      3.1280000000000001
   181   3                       0      9.3840000000000003      3.1280000000000001
   182   5      3.1280000000000001      9.3840000000000003      3.1280000000000001
   183   1      6.2560000000000002      9.3840000000000003      3.1280000000000001
   184   3      9.3840000000000003      9.3840000000000003      3.1280000000000001
   185   1                  12.512      9.3840000000000003      3.1280000000000001
   186   4      15.640000000000001      9.3840000000000003      3.1280000000000001
   187   5      18.768000000000001      9.3840000000000003      3.1280000000000001
   188   5      21.896000000000001      9.3840000000000003      3.1280000000000001
   189   5      25.024000000000001      9.3840000000000003      3.1280000000000001
   190   3      28.152000000000001      9.3840000000000003      3.1280000000000001
   191   1      31.280000000000001      9.3840000000000003      3.1280000000000001
   192   3      34.408000000000001      9.3840000000000003      3.1280000000000001
   193   3                       0                  12.512      3.1280000000000001
   194   3      3.1280000000000001                  12.512      3.1280000000000001
   195   1      6.2560000000000002                  12.512      3.1280000000000001
   196   3      9.3840000000000003                  12.512      3.1280000000000001
   197   3                  12.512                  12.512      3.1280000000000001
   198   1      15.640000000000001                  12.512      3.1280000000000001
   199   5      18.768000000000001                  12.512      3.1280000000000001
   200   1      21.896000000000001                  12.512      3.1280000000000001
   201   4      25.024000000000001                  12.512      3.1280000000000001
   202   3      28.152000000000001                  12.512      3.1280000000000001
   203   1      31.280000000000001                  12.512      3.1280000000000001
   204   4      34.408000000000001                  12.512      3.1280000000000001
   205   2                       0      15.640000000000001      3.1280000000000001
   206   3      3.1280000000000001      15.640000000000001      3.1280000000000001
   207   4      6.2560000000000002      15.640000000000001      3.1280000000000001
   208   2      9.3840000000000003      15.640000000000001      3.1280000000000001
   209   4                  12.512      15.640000000000001      3.1280000000000001
   210   5      15.640000000000001      15.640000000000001      3.1280000000000001
   211   5      18.768000000000001      15.640000000000001      3.1280000000000001
   212   4      21.896000000000001      15.640000000000001      3.1280000000000001
   213   4      25.024000000000001      15.640000000000001      3.1280000000000001
   214   1      28.152000000000001      15.640000000000001      3.1280000000000001
   215   5      31.280000000000001      15.640000000000001      3.1280000000000001
   216   3      34.408000000000001      15.640000000000001      3.1280000000000001
   217   1                       0      18.768000000000001      3.1280000000000001
   218   1      3.1280000000000001      18.768000000000001      3.1280000000000001
   219   3      6.2560000000000002      18.768000000000001      3.1280000000000001
   220   5      9.3840000000000003      18.768000000000001      3.1280000000000001
   221   1                  12.512      18.768000000000001      3.1280000000000001
   222   5      15.640000000000001      18.768000000000001      3.1280000000000001
   223   2      18.768000000000001      18.768000000000001      3.1280000000000001
   224   5      21.896000000000001      18.768000000000001      3.1280000000000001
   225   3      25.024000000000001      18.768000000000001      3.1280000000000001
   226   5      28.152000000000001      18.768000000000001      3.1280000000000001
   227   4      31.280000000000001      18.768000000000001      3.1280000000000001
   228   1      34.408000000000001      18.768000000000001      3.1280000000000001
   229   5                       0      21.896000000000001      3.1280000000000001
   230   1      3.1280000000000001      21.896000000000001      3.1280000000000001
   231   1      6.2560000000000002      21.896000000000001      3.1280000000000001
   232   2      9.3840000000000003      21.896000000000001      3.1280000000000001
   233   4                  12.512      21.896000000000001      3.1280000000000001
   234   5      15.640000000000001      21.896000000000001      3.1280000000000001
   235   4      18.768000000000001      21.896000000000001      3.1280000000000001
   236   3      21.896000000000001      21.896000000000001      3.1280000000000001
   237   4      25.024000000000001      21.896000000000001      3.1280000000000001
   238   5      28.152000000000001      21.896000000000001      3.1280000000000001
   239   3      31.280000000000001      21.896000000000001      3.1280000000000001
   240   2      34.408000000000001      21.896000000000001      3.1280000000000001
   241   3                       0      25.024000000000001      3.1280000000000001
   242   1      3.1280000000000001      25.024000000000001      3.1280000000000001
   243   3      6.2560000000000002      25.024000000000001      3.1280000000000001
   244   3      9.3840000000000003      25.024000000000001      3.1280000000000001
   245   5                  12.512      25.024000000000001      3.1280000000000001
   246   1      15.640000000000001      25.024000000000001      3.1280000000000001
   247   1      18.768000000000001      25.024000000000001      3.1280000000000001
   248   1      21.896000000000001      25.024000000000001      3.1280000000000001
   249   2      25.024000000000001      25.024000000000001      3.1280000000000001
   250   1      28.152000000000001      25.024000000000001      3.1280000000000001
   251   5      31.280000000000001      25.024000000000001      3.1280000000000001
   252   5      34.408000000000001      25.024000000000001      3.1280000000000001
   253   3                       0      28.152000000000001      3.1280000000000001
   254   2      3.1280000000000001      28.152000000000001      3.1280000000000001
   255   2      6.2560000000000002      28.152000000000001      3.1280000000000001
   256   4      9.3840000000000003      28.152000000000001      3.1280000000000001
   257   2                  12.512      28.152000000000001      3.1280000000000001
   258   5      15.640000000000001      28.152000000000001      3.1280000000000001
   259   4      18.768000000000001      28.152000000000001      3.1280000000000001
   260   5      21.896000000000001      28.152000000000001      3.1280000000000001
   261   1      25.024000000000001      28.152000000000001      3.1280000000000001
   262   2      28.152000000000001      28.152000000000001      3.1280000000000001
   263   3      31.280000000000001      28.152000000000001      3.1280000000000001
   264   1      34.408000000000001      28.152000000000001      3.1280000000000001
   265   5                       0      31.280000000000001      3.1280000000000001
   266   2      3.1280000000000001      31.280000000000001      3.1280000000000001
   267   5      6.2560000000000002      31.280000000000001      3.1280000000000001
   268   4      9.3840000000000003      31.280000000000001      3.1280000000000001
   269   4                  12.512      31.280000000000001      3.1280000000000001
   270   5      15.640000000000001      31.280000000000001      3.1280000000000001
   271   3      18.768000000000001      31.280000000000001      3.1280000000000001
   272   3      21.896000000000001      31.280000000000001      3.1280000000000001
   273   2      25.024000000000001      31.280000000000001      3.1280000000000001
   274   5      28.152000000000001      31.280000000000001      3.1280000000000001
   275   2      31.280000000000001      31.280000000000001      3.1280000000000001
   276   2      34.408000000000001      31.280000000000001      3.1280000000000001
   277   2                       0      34.408000000000001      3.1280000000000001
   278   1      3.1280000000000001      34.408000000000001      3.1280000000000001
   279   1      6.2560000000000002      34.408000000000001      3.1280000000000001
   280   1      9.3840000000000003      34.408000000000001      3.1280000000000001
   281   1                  12.512      34.408000000000001      3.1280000000000001
   282   4      15.640000000000001      34.408000000000001      3.1280000000000001
   283   2      18.768000000000001      34.408000000000001      3.1280000000000001
   284   3      21.896000000000001      34.408000000000001      3.1280000000000001
   285   1      25.024000000000001      34.408000000000001      3.1280000000000001
   286   5      28.152000000000001      34.408000000000001      3.1280000000000001
   287   4      31.280000000000001      34.408000000000001      3.1280000000000001
   288   4      34.408000000000001      34.408000000000001      3.1280000000000001
   289   2                       0                       0      6.2560000000000002
   290   4      3.1280000000000001                       0      6.2560000000000002
   291   4      6.2560000000000002                       0      6.2560000000000002
   292   3      9.3840000000000003                       0      6.2560000000000002
   293   2                  12.512                       0      6.2560000000000002
   294   1      15.640000000000001                       0      6.2560000000000002
   295   5      18.768000000000001                       0      6.2560000000000002
   296   1      21.896000000000001                       0      6.2560000000000002
   297   4      25.024000000000001                       0      6.2560000000000002
   298   4      28.152000000000001                       0      6.2560000000000002
   299   1      31.280000000000001                       0      6.2560000000000002
   300   4      34.408000000000001                       0      6.2560000000000002
   301   4                       0      3.1280000000000001      6.2560000000000002
   302   1      3.1280000000000001      3.1280000000000001      6.2560000000000002
   303   5      6.2560000000000002      3.1280000000000001      6.2560000000000002
   304   3      9.3840000000000003      3.1280000000000001      6.2560000000000002
   305   2                  12.512      3.1280000000000001      6.2560000000000002
   306   3      15.640000000000001      3.1280000000000001      6.2560000000000002
   307   3      18.768000000000001      3.1280000000000001      6.2560000000000002
   308   5      21.896000000000001      3.1280000000000001      6.2560000000000002
   309   3      25.024000000000001      3.1280000000000001      6.2560000000000002
   310   2      28.152000000000001      3.1280000000000001      6.2560000000000002
   311   2      31.280000000000001      3.1280000000000001      6.2560000000000002
   312   2      34.408000000000001      3.1280000000000001      6.2560000000000002
   313   3                       0      6.2560000000000002      6.2560000000000002
   314   4      3.1280000000000001      6.2560000000000002      6.2560000000000002
   315   5      6.2560000000000002      6.2560000000000002      6.2560000000000002
   316   3      9.3840000000000003      6.2560000000000002      6.2560000000000002
   317   3                  12.512      6.2560000000000002      6.2560000000000002
   318   1      15.640000000000001      6.2560000000000002      6.2560000000000002
   319   3      18.768000000000001      6.2560000000000002      6.2560000000000002
   320   2      21.896000000000001      6.2560000000000002      6.2560000000000002
   321   1      25.024000000000001      6.2560000000000002      6.2560000000000002
   322   3      28.152000000000001      6.2560000000000002      6.2560000000000002
   323   4      31.280000000000001      6.2560000000000002      6.2560000000000002
   324   2      34.408000000000001      6.2560000000000002      6.2560000000000002
   325   1                       0      9.3840000000000003      6.2560000000000002
   326   1      3.1280000000000001      9.3840000000000003      6.2560000000000002
   327   3      6.2560000000000002      9.3840000000000003      6.2560000000000002
   328   2      9.3840000000000003      9.3840000000000003      6.2560000000000002
   329   1                  12.512      9.3840000000000003      6.2560000000000002
   330   3      15.640000000000001      9.3840000000000003      6.2560000000000002
   331   5      18.768000000000001      9.3840000000000003      6.2560000000000002
   332   1      21.896000000000001      9.3840000000000003      6.2560000000000002
   333   1      25.024000000000001      9.3840000000000003      6.2560000000000002
   334   3      28.152000000000001      9.3840000000000003      6.2560000000000002
   335   5      31.280000000000001      9.3840000000000003      6.2560000000000002
   336   3      34.408000000000001      9.3840000000000003      6.2560000000000002
   337   1                       0                  12.512      6.2560000000000002
   338   2      3.1280000000000001                  12.512      6.2560000000000002
   339   2      6.2560000000000002                  12.512      6.2560000000000002
   340   1      9.3840000000000003                  12.512      6.2560000000000002
   341   3                  12.512                  12.512      6.2560000000000002
   342   5      15.640000000000001                  12.512      6.2560000000000002
   343   1      18.768000000000001                  12.512      6.2560000000000002
   344   1      21.896000000000001                  12.512      6.2560000000000002
   345   2      25.024000000000001                  12.512      6.2560000000000002
   346   4      28.152000000000001                  12.512      6.2560000000000002
   347   2      31.280000000000001                  12.512      6.2560000000000002
   348   1      34.408000000000001                  12.512      6.2560000000000002
   349   1                       0      15.640000000000001      6.2560000000000002
   350   2      3.1280000000000001      15.640000000000001      6.2560000000000002
   351   4      6.2560000000000002      15.640000000000001      6.2560000000000002
   352   3      9.3840000000000003      15.640000000000001      6.2560000000000002
   353   1                  12.512      15.640000000000001      6.2560000000000002
   354   4      15.640000000000001      15.640000000000001      6.2560000000000002
   355   2      18.768000000000001      15.640000000000001      6.2560000000000002
   356   3      21.896000000000001      15.640000000000001      6.2560000000000002
   357   2      25.024000000000001      15.640000000000001      6.2560000000000002
   358   2      28.152000000000001      15.640000000000001      6.2560000000000002
   359   2      31.280000000000001      15.640000000000001      6.2560000000000002