# LAMMPS input script generated by PyLammps
# Initialise simulation
atom_style     atomic
units          metal
read_data     /home/winniebird/sfarrelly2024/test/test_projects/test_project_2/var_1/project/data/output/after_relax.data
Reading data file ...
  orthogonal box = (0 0 0) to (12.414835 12.468705 12.503477)
  1 by 1 by 1 MPI processor grid
  reading atoms ...
  128 atoms
  reading velocities ...
  128 velocities
  read_data CPU = 0.001 seconds
# 5 elements of HEA: Ni Co Ti Zr Hf specorder
mass           1 58.693
mass           2 58.933
mass           3 47.867
mass           4 91.224
mass           5 178.49
# Reading snap potential files
pair_style     snap
pair_coeff     * * /home/winniebird/sfarrelly2024/test/sez26_package/SNAP_potentials/HEA_var1.snapcoeff /home/winniebird/sfarrelly2024/test/sez26_package/SNAP_potentials/HEA_var1.snapparam Ni Co Ti Zr Hf
SNAP Element = Ni, Radius 1.805, Weight 0.43
SNAP Element = Co, Radius 1.81, Weight 0.48
SNAP Element = Ti, Radius 2.094, Weight 0.36
SNAP Element = Zr, Radius 2.28, Weight 0.35
SNAP Element = Hf, Radius 2.313, Weight 0.33
SNAP keyword rcutfac 1.0
SNAP keyword twojmax 8
SNAP keyword rfac0 0.99363
SNAP keyword rmin0 0.0
SNAP keyword bzeroflag 0
SNAP keyword wselfallflag 0
SNAP keyword chemflag 0
SNAP keyword bnormflag 0
SNAP keyword switchinnerflag 0
SNAP keyword quadraticflag 0
# Setup standard output
variable       avg_lxyz equal (lx+ly+lz)/3.0
thermo_style   custom step temp pe pxx pyy pzz density
thermo         100
# Set up and run MD in NPT ensemble
timestep       0.001
neighbor       1.0 bin
neigh_modify   every 5 delay 0 check yes
reset_timestep 0
dump		    1 all custom 1000 /home/winniebird/sfarrelly2024/test/test_projects/test_project_2/var_1/project/data/output/md_npt_dump.cfg id type x y z
fix		    1 all npt temp 300.0 300.0 0.1 aniso 0 0 1.0
fix		    avg all ave/time 10 100 1000 c_thermo_temp v_avg_lxyz
run		    1000
Neighbor list info ...
  update: every = 5 steps, delay = 0 steps, check = yes
  max neighbors/atom: 2000, page size: 100000
  master list distance cutoff = 5.626
  ghost atom cutoff = 5.626
  binsize = 2.813, bins = 5 5 5
  1 neighbor lists, perpetual/occasional/extra = 1 0 0
  (1) pair snap, perpetual
      attributes: full, newton on
      pair build: full/bin/atomonly
      stencil: full/bin/3d
      bin: standard
Per MPI rank memory allocation (min/avg/max) = 3.599 | 3.599 | 3.599 Mbytes
   Step          Temp          PotEng          Pxx            Pyy            Pzz          Density    
         0   283.32711     -1001.8418      2813.9112      253.35039     -919.58604      8.9921351    
       100   299.3622      -1001.8458     -1211.7785      1471.2909     -1700.0461      8.9895891    
       200   323.99242     -1001.4335     -7221.1331     -1552.702      -4375.5834      8.9546046    
       300   366.94453     -1001.8915      6535.2889     -8375.3659      10425.136      9.007264     
       400   315.30224     -1001.7209     -4270.8212      5544.3498     -7300.0987      8.9658407    
       500   303.68214     -1001.988       201.58447      2121.1983     -3974.0435      8.9817714    
       600   331.84064     -1002.6843      1223.5697      166.44582      3033.8694      9.0023029    
       700   284.59684     -1002.2905     -4593.1746     -9804.1114      246.42755      8.9588024    
       800   290.48025     -1002.7558      6819.2513      6872.3354     -5454.5008      9.0123957    
       900   278.09107     -1002.8166     -6492.2838     -4.4206985     -616.6131       8.9868396    
      1000   313.61545     -1002.4947     -9039.0493     -9627.8831     -219.42826      8.9623107    
Loop time of 20.9167 on 1 procs for 1000 steps with 128 atoms

Performance: 4.131 ns/day, 5.810 hours/ns, 47.809 timesteps/s, 6.120 katom-step/s
100.0% CPU use with 1 MPI tasks x no OpenMP threads

MPI task timing breakdown:
Section |  min time  |  avg time  |  max time  |%varavg| %total
---------------------------------------------------------------
Pair    | 20.906     | 20.906     | 20.906     |   0.0 | 99.95
Neigh   | 0.0025616  | 0.0025616  | 0.0025616  |   0.0 |  0.01
Comm    | 0.0020088  | 0.0020088  | 0.0020088  |   0.0 |  0.01
Output  | 0.00025948 | 0.00025948 | 0.00025948 |   0.0 |  0.00
Modify  | 0.005248   | 0.005248   | 0.005248   |   0.0 |  0.03
Other   |            | 0.0005526  |            |       |  0.00

Nlocal:            128 ave         128 max         128 min
Histogram: 1 0 0 0 0 0 0 0 0 0
Nghost:            727 ave         727 max         727 min
Histogram: 1 0 0 0 0 0 0 0 0 0
Neighs:              0 ave           0 max           0 min
Histogram: 1 0 0 0 0 0 0 0 0 0
FullNghs:         4442 ave        4442 max        4442 min
Histogram: 1 0 0 0 0 0 0 0 0 0

Total # of neighbors = 4442
Ave neighs/atom = 34.703125
Neighbor list builds = 12
Dangerous builds = 0
unfix		    1
variable       avg_T equal f_avg[1]
variable       L equal f_avg[2]
variable       L0 equal ${L}
variable       L0 equal 12.4648757545338
print          "Temp Strain" file /home/winniebird/sfarrelly2024/test/test_projects/test_project_2/var_1/project/data/output/Record_thermal_exp.txt
Temp Strain
print          "${avg_T}    0.0" append /home/winniebird/sfarrelly2024/test/test_projects/test_project_2/var_1/project/data/output/Record_thermal_exp.txt
298.420827679865    0.0
unfix          avg
variable	    n loop 3
label          heat
variable       t equal 300.0+${n}*50
variable       t equal 300.0+1*50
fix            1 all npt temp ${t} ${t} 0.1 aniso 0 0 1.0
fix            1 all npt temp 350 ${t} 0.1 aniso 0 0 1.0
fix            1 all npt temp 350 350 0.1 aniso 0 0 1.0
fix		    avg all ave/time 10 100 1000 c_thermo_temp v_avg_lxyz
run		    1000
Per MPI rank memory allocation (min/avg/max) = 4.867 | 4.867 | 4.867 Mbytes
   Step          Temp          PotEng          Pxx            Pyy            Pzz          Density    
      1000   313.61545     -1002.4947     -9039.0493     -9627.8831     -219.42826      8.9623107    
      1100   314.8463      -1001.8718     -3292.1647     -279.13192      4425.9189      8.9833958    
      1200   343.43543     -1001.523       6322.4258      1538.9223     -8050.9896      8.9757034    
      1300   389.23452     -1001.5897     -2090.5501      2372.6835     -5681.2102      8.9694688    
      1400   382.86574     -1001.0844     -7219.8905     -5789.8367      8705.4095      8.9732063    
      1500   360.29574     -1000.7501     -3843.9866      782.67746     -4974.0748      8.9428306    
      1600   311.72773     -1000.8472      14886.684      105.0342       1733.5898      9.0022934    
      1700   309.05484     -1001.321      -1662.0851      1220.2534     -2217.9846      8.9684055    
      1800   339.85376     -1001.462      -7542.082       6657.0402      11592.128      9.0072795    
      1900   353.0542      -1001.2774      1040.3572     -5639.0108     -5756.7573      8.9481256    
      2000   371.01304     -1001.0124      9203.0881     -1782.5972     -4461.1962      8.9693014    
Loop time of 20.8696 on 1 procs for 1000 steps with 128 atoms

Performance: 4.140 ns/day, 5.797 hours/ns, 47.916 timesteps/s, 6.133 katom-step/s
100.0% CPU use with 1 MPI tasks x no OpenMP threads

MPI task timing breakdown:
Section |  min time  |  avg time  |  max time  |%varavg| %total
---------------------------------------------------------------
Pair    | 20.859     | 20.859     | 20.859     |   0.0 | 99.95
Neigh   | 0.0028043  | 0.0028043  | 0.0028043  |   0.0 |  0.01
Comm    | 0.0020627  | 0.0020627  | 0.0020627  |   0.0 |  0.01
Output  | 0.00027387 | 0.00027387 | 0.00027387 |   0.0 |  0.00
Modify  | 0.0052062  | 0.0052062  | 0.0052062  |   0.0 |  0.02
Other   |            | 0.000547   |            |       |  0.00

Nlocal:            128 ave         128 max         128 min
Histogram: 1 0 0 0 0 0 0 0 0 0
Nghost:            727 ave         727 max         727 min
Histogram: 1 0 0 0 0 0 0 0 0 0
Neighs:              0 ave           0 max           0 min
Histogram: 1 0 0 0 0 0 0 0 0 0
FullNghs:         4412 ave        4412 max        4412 min
Histogram: 1 0 0 0 0 0 0 0 0 0

Total # of neighbors = 4412
Ave neighs/atom = 34.46875
Neighbor list builds = 13
Dangerous builds = 0
unfix		    1
variable       avg_T equal f_avg[1]
variable       strain equal f_avg[2]/${L0}-1.0
variable       strain equal f_avg[2]/12.4648757545338-1.0
print          "${avg_T}    ${strain}" append /home/winniebird/sfarrelly2024/test/test_projects/test_project_2/var_1/project/data/output/Record_thermal_exp.txt
340.809349484324    0.00045307018443097
unfix          avg
next           n
jump          /home/winniebird/sfarrelly2024/test/test_projects/test_project_2/var_1/project/data/input/in.heat.HEA heat
variable       t equal 300.0+${n}*50
variable       t equal 300.0+2*50
fix            1 all npt temp ${t} ${t} 0.1 aniso 0 0 1.0
fix            1 all npt temp 400 ${t} 0.1 aniso 0 0 1.0
fix            1 all npt temp 400 400 0.1 aniso 0 0 1.0
fix		    avg all ave/time 10 100 1000 c_thermo_temp v_avg_lxyz
run		    1000
Per MPI rank memory allocation (min/avg/max) = 4.867 | 4.867 | 4.867 Mbytes
   Step          Temp          PotEng          Pxx            Pyy            Pzz          Density    
      2000   371.01304     -1001.0124      9203.0881     -1782.5972     -4461.1962      8.9693014    
      2100   383.71433     -1000.6531     -1790.9818     -776.73759      260.15758      8.9534317    
      2200   417.67124     -1000.3402     -5511.8484      1816.2519      245.22111      8.9515544    
      2300   435.65529     -1000.5497     -5818.9844     -934.93841      566.30249      8.948694     
      2400   363.27613     -999.72762      5776.8705     -4098.2419     -144.24042      8.9611945    
      2500   421.63242     -1000.7833      4684.6194      5566.7205      649.81424      8.9811184    
      2600   398.55336     -1001.1201     -12722.613     -10103.138     -618.4778       8.9159269    
      2700   365.5863      -1001.1403      4835.3304      6830.3461      3791.198       9.0059325    
      2800   423.59806     -1001.3182      949.12695      2394.8971     -11437.315      8.9480204    
      2900   368.2197      -999.64285      1005.9104     -2209.3736      767.61733      8.9511311    
      3000   409.12062     -999.84428     -1525.4222     -4283.2382      12673.017      8.9609953    
Loop time of 20.862 on 1 procs for 1000 steps with 128 atoms

Performance: 4.142 ns/day, 5.795 hours/ns, 47.934 timesteps/s, 6.136 katom-step/s
100.0% CPU use with 1 MPI tasks x no OpenMP threads

MPI task timing breakdown:
Section |  min time  |  avg time  |  max time  |%varavg| %total
---------------------------------------------------------------
Pair    | 20.851     | 20.851     | 20.851     |   0.0 | 99.95
Neigh   | 0.0029514  | 0.0029514  | 0.0029514  |   0.0 |  0.01
Comm    | 0.0020567  | 0.0020567  | 0.0020567  |   0.0 |  0.01
Output  | 0.00030304 | 0.00030304 | 0.00030304 |   0.0 |  0.00
Modify  | 0.0052637  | 0.0052637  | 0.0052637  |   0.0 |  0.03
Other   |            | 0.0005564  |            |       |  0.00

Nlocal:            128 ave         128 max         128 min
Histogram: 1 0 0 0 0 0 0 0 0 0
Nghost:            727 ave         727 max         727 min
Histogram: 1 0 0 0 0 0 0 0 0 0
Neighs:              0 ave           0 max           0 min
Histogram: 1 0 0 0 0 0 0 0 0 0
FullNghs:         4362 ave        4362 max        4362 min
Histogram: 1 0 0 0 0 0 0 0 0 0

Total # of neighbors = 4362
Ave neighs/atom = 34.078125
Neighbor list builds = 14
Dangerous builds = 0
unfix		    1
variable       avg_T equal f_avg[1]
variable       strain equal f_avg[2]/${L0}-1.0
variable       strain equal f_avg[2]/12.4648757545338-1.0
print          "${avg_T}    ${strain}" append /home/winniebird/sfarrelly2024/test/test_projects/test_project_2/var_1/project/data/output/Record_thermal_exp.txt
389.824766533482    0.00108007341297678
unfix          avg
next           n
jump          /home/winniebird/sfarrelly2024/test/test_projects/test_project_2/var_1/project/data/input/in.heat.HEA heat
variable       t equal 300.0+${n}*50
variable       t equal 300.0+3*50
fix            1 all npt temp ${t} ${t} 0.1 aniso 0 0 1.0
fix            1 all npt temp 450 ${t} 0.1 aniso 0 0 1.0
fix            1 all npt temp 450 450 0.1 aniso 0 0 1.0
fix		    avg all ave/time 10 100 1000 c_thermo_temp v_avg_lxyz
run		    1000
Per MPI rank memory allocation (min/avg/max) = 4.867 | 4.867 | 4.867 Mbytes
   Step          Temp          PotEng          Pxx            Pyy            Pzz          Density    
      3000   409.12062     -999.84428     -1525.4222     -4283.2382      12673.017      8.9609953    
      3100   432.98021     -999.76827     -743.65126     -1813.0254      156.25783      8.9356522    
      3200   470.9652      -999.27512      4693.922       5528.349      -3808.9256      8.9502658    
      3300   439.63537     -998.7151      -4738.4386      5412.6127     -4160.039       8.9321579    
      3400   442.24392     -998.776       -207.33405      36.847282      7434.0129      8.9474556    
      3500   472.34411     -999.59306     -713.43069     -4629.4727     -1065.7891      8.9284356    
      3600   467.84453     -1000.131       4716.1315     -1739.6317      240.32872      8.9605177    
      3700   424.05765     -999.9138      -5096.8395     -11564.408     -664.37751      8.9110799    
      3800   494.43527     -1000.0769      7375.8674      8881.1237     -3756.7548      8.9758235    
      3900   419.03512     -997.9003      -15093.728      10170.098     -2433.6626      8.8981191    
      4000   471.54283     -998.2466       1742.0964     -3295.6849      7650.8615      8.9193714    
Loop time of 20.8818 on 1 procs for 1000 steps with 128 atoms

Performance: 4.138 ns/day, 5.800 hours/ns, 47.889 timesteps/s, 6.130 katom-step/s
100.0% CPU use with 1 MPI tasks x no OpenMP threads

MPI task timing breakdown:
Section |  min time  |  avg time  |  max time  |%varavg| %total
---------------------------------------------------------------
Pair    | 20.87      | 20.87      | 20.87      |   0.0 | 99.94
Neigh   | 0.0034159  | 0.0034159  | 0.0034159  |   0.0 |  0.02
Comm    | 0.0020874  | 0.0020874  | 0.0020874  |   0.0 |  0.01
Output  | 0.0002588  | 0.0002588  | 0.0002588  |   0.0 |  0.00
Modify  | 0.0052442  | 0.0052442  | 0.0052442  |   0.0 |  0.03
Other   |            | 0.0005586  |            |       |  0.00

Nlocal:            128 ave         128 max         128 min
Histogram: 1 0 0 0 0 0 0 0 0 0
Nghost:            727 ave         727 max         727 min
Histogram: 1 0 0 0 0 0 0 0 0 0
Neighs:              0 ave           0 max           0 min
Histogram: 1 0 0 0 0 0 0 0 0 0
FullNghs:         4328 ave        4328 max        4328 min
Histogram: 1 0 0 0 0 0 0 0 0 0

Total # of neighbors = 4328
Ave neighs/atom = 33.8125
Neighbor list builds = 16
Dangerous builds = 0
unfix		    1
variable       avg_T equal f_avg[1]
variable       strain equal f_avg[2]/${L0}-1.0
variable       strain equal f_avg[2]/12.4648757545338-1.0
print          "${avg_T}    ${strain}" append /home/winniebird/sfarrelly2024/test/test_projects/test_project_2/var_1/project/data/output/Record_thermal_exp.txt
448.938924973855    0.001851562181022
unfix          avg
next           n
jump          /home/winniebird/sfarrelly2024/test/test_projects/test_project_2/var_1/project/data/input/in.heat.HEA heat
Total wall time: 0:01:23
