# LAMMPS input script generated by PyLammps
# Initialise simulation
atom_style     atomic
units          metal
read_data     /home/winniebird/sfarrelly2024/test/test_projects/test_project_2/var_1/project/data//input/HEA_II.lmp
Reading data file ...
  orthogonal box = (0 0 0) to (12.512 12.512 12.512)
  1 by 1 by 1 MPI processor grid
  reading atoms ...
  128 atoms
  read_data CPU = 0.001 seconds
# 5 elements of HEA: Ni Co Ti Zr Hf specorder
mass           1 58.693
mass           2 58.933
mass           3 47.867
mass           4 91.224
mass           5 178.49
# Reading snap potential files
pair_style     snap
pair_coeff     * * /home/winniebird/sfarrelly2024/test/sez26_package/SNAP_potentials/HEA_var1.snapcoeff /home/winniebird/sfarrelly2024/test/sez26_package/SNAP_potentials/HEA_var1.snapparam Ni Co Ti Zr Hf
SNAP Element = Ni, Radius 1.805, Weight 0.43
SNAP Element = Co, Radius 1.81, Weight 0.48
SNAP Element = Ti, Radius 2.094, Weight 0.36
SNAP Element = Zr, Radius 2.28, Weight 0.35
SNAP Element = Hf, Radius 2.313, Weight 0.33
SNAP keyword rcutfac 1.0
SNAP keyword twojmax 8
SNAP keyword rfac0 0.99363
SNAP keyword rmin0 0.0
SNAP keyword bzeroflag 0
SNAP keyword wselfallflag 0
SNAP keyword chemflag 0
SNAP keyword bnormflag 0
SNAP keyword switchinnerflag 0
SNAP keyword quadraticflag 0
# Setup standard output
thermo_style   custom step temp pe pxx pyy pzz density
thermo         100
# Set up and run minimization
dump		    1 all custom 100 /home/winniebird/sfarrelly2024/test/test_projects/test_project_2/var_1/project/data/output/min_dump.cfg id type x y z
min_style	    cg
fix		    1 all box/relax aniso 0.0
minimize	    0.0 0.02 200 1000
Neighbor list info ...
  update: every = 1 steps, delay = 0 steps, check = yes
  max neighbors/atom: 2000, page size: 100000
  master list distance cutoff = 6.626
  ghost atom cutoff = 6.626
  binsize = 3.313, bins = 4 4 4
  1 neighbor lists, perpetual/occasional/extra = 1 0 0
  (1) pair snap, perpetual
      attributes: full, newton on
      pair build: full/bin/atomonly
      stencil: full/bin/3d
      bin: standard
WARNING: Energy due to 3 extra global DOFs will be included in minimizer energies
 (../min.cpp:225)
Per MPI rank memory allocation (min/avg/max) = 4.811 | 4.811 | 4.811 Mbytes
   Step          Temp          PotEng          Pxx            Pyy            Pzz          Density    
         0   0             -1001.9641     -27173.894     -27718.963     -27609.087      8.8853741    
       100   0             -1003.0423     -633.82623     -627.22163     -630.9453       9.0443878    
       200   0             -1004.2596     -473.47179     -471.38458     -474.12383      9.059846     
Loop time of 6.82056 on 1 procs for 200 steps with 128 atoms

100.0% CPU use with 1 MPI tasks x no OpenMP threads

Minimization stats:
  Stopping criterion = max iterations
  Energy initial, next-to-last, final = 
     -1001.96406872201  -1004.24517816715  -1004.25959421518
  Force two-norm initial, final = 58.499556 3.1024386
  Force max component initial, final = 33.88807 0.5722925
  Final line search alpha, max atom move = 0.0016323247 0.00093416718
  Iterations, force evaluations = 200 200

MPI task timing breakdown:
Section |  min time  |  avg time  |  max time  |%varavg| %total
---------------------------------------------------------------
Pair    | 6.817      | 6.817      | 6.817      |   0.0 | 99.95
Neigh   | 0          | 0          | 0          |   0.0 |  0.00
Comm    | 0.00059235 | 0.00059235 | 0.00059235 |   0.0 |  0.01
Output  | 0.00025776 | 0.00025776 | 0.00025776 |   0.0 |  0.00
Modify  | 0          | 0          | 0          |   0.0 |  0.00
Other   |            | 0.002737   |            |       |  0.04

Nlocal:            128 ave         128 max         128 min
Histogram: 1 0 0 0 0 0 0 0 0 0
Nghost:           1113 ave        1113 max        1113 min
Histogram: 1 0 0 0 0 0 0 0 0 0
Neighs:              0 ave           0 max           0 min
Histogram: 1 0 0 0 0 0 0 0 0 0
FullNghs:         7772 ave        7772 max        7772 min
Histogram: 1 0 0 0 0 0 0 0 0 0

Total # of neighbors = 7772
Ave neighs/atom = 60.71875
Neighbor list builds = 0
Dangerous builds = 0
unfix		    1
minimize	    0.0 0.02 200 1000
Per MPI rank memory allocation (min/avg/max) = 6.066 | 6.066 | 6.066 Mbytes
   Step          Temp          PotEng          Pxx            Pyy            Pzz          Density    
       200   0             -1004.2596     -473.47179     -471.38458     -474.12383      9.059846     
       274   0             -1006.8062     -6897.9653     -2192.9575      223.33241      9.059846     
Loop time of 4.93826 on 1 procs for 74 steps with 128 atoms

100.0% CPU use with 1 MPI tasks x no OpenMP threads

Minimization stats:
  Stopping criterion = force tolerance
  Energy initial, next-to-last, final = 
     -1004.25959421518  -1006.80613435675  -1006.80618131591
  Force two-norm initial, final = 2.9406856 0.017666166
  Force max component initial, final = 0.47334575 0.0043091454
  Final line search alpha, max atom move = 1 0.0043091454
  Iterations, force evaluations = 74 146

MPI task timing breakdown:
Section |  min time  |  avg time  |  max time  |%varavg| %total
---------------------------------------------------------------
Pair    | 4.9373     | 4.9373     | 4.9373     |   0.0 | 99.98
Neigh   | 0          | 0          | 0          |   0.0 |  0.00
Comm    | 0.00044545 | 0.00044545 | 0.00044545 |   0.0 |  0.01
Output  | 0          | 0          | 0          |   0.0 |  0.00
Modify  | 0          | 0          | 0          |   0.0 |  0.00
Other   |            | 0.00047    |            |       |  0.01

Nlocal:            128 ave         128 max         128 min
Histogram: 1 0 0 0 0 0 0 0 0 0
Nghost:           1113 ave        1113 max        1113 min
Histogram: 1 0 0 0 0 0 0 0 0 0
Neighs:              0 ave           0 max           0 min
Histogram: 1 0 0 0 0 0 0 0 0 0
FullNghs:         7778 ave        7778 max        7778 min
Histogram: 1 0 0 0 0 0 0 0 0 0

Total # of neighbors = 7778
Ave neighs/atom = 60.765625
Neighbor list builds = 0
Dangerous builds = 0
undump		    1
write_data	/home/winniebird/sfarrelly2024/test/test_projects/test_project_2/var_1/project/data/output/after_min.data nocoeff
System init for write_data ...
# Define some properties you are instrested in
variable	    lenx equal lx
variable	    leny equal ly
variable	    lenz equal lz
# computing more variables
compute		    sta all stress/atom NULL
compute		    vol_atom all voronoi/atom
variable	    va atom c_vol_atom[1]
variable	    sa_xx atom 1E-4*c_sta[1]/v_va
variable	    sa_yy atom 1E-4*c_sta[2]/v_va
variable	    sa_zz atom 1E-4*c_sta[3]/v_va
variable	    sa_xy atom 1E-4*c_sta[4]/v_va
variable	    sa_xz atom 1E-4*c_sta[5]/v_va
variable	    sa_yz atom 1E-4*c_sta[6]/v_va
variable	    sa_hydro atom (v_sa_xx+v_sa_yy+v_sa_zz)/3.0
variable	    sa_von atom sqrt(0.5*((v_sa_xx-v_sa_yy)^2+(v_sa_yy-v_sa_zz)^2+(v_sa_zz-v_sa_xx)^2)+3.0*((v_sa_xy)^2+(v_sa_xz)^2+(v_sa_yz)^2))
# Set up and run MD in NPT ensemble
timestep       0.001
neighbor       1.0 bin
neigh_modify   every 5 delay 0 check yes
reset_timestep 0
velocity	    all create 300.0 12345678
dump		    1 all custom 1000 /home/winniebird/sfarrelly2024/test/test_projects/test_project_2/var_1/project/data/output/md_npt_dump.cfg id type x y z v_sa_hydro v_sa_von
fix		    2 all print 100 "$(step) $(temp) $(pe) $(vol) $(density) $(pxx) $(pyy) $(pzz)" file /home/winniebird/sfarrelly2024/test/test_projects/test_project_2/var_1/project/data//output/Record_npt.txt
fix		    1 all npt temp 300.0 300.0 0.1 aniso 0 0 1.0
fix		    avg all ave/time 10 100 1000 v_lenx v_leny v_lenz
run		    1000
0 300 -1006.8061813159109761 1921.0342573683246883 9.0598459754034124103 -4250.838958163456482 752.96084715831261747 2845.0473174877793099
Per MPI rank memory allocation (min/avg/max) = 4.437 | 4.437 | 4.437 Mbytes
   Step          Temp          PotEng          Pxx            Pyy            Pzz          Density    
         0   300           -1006.8062     -4250.839       752.96085      2845.0473      9.059846     
100 165.54325515166098626 -1004.150589834782636 1937.837870023431833 8.981285150042017662 -7789.5893658379236513 -7450.7746522135985288 -9234.5460402783119207
       100   165.54326     -1004.1506     -7789.5894     -7450.7747     -9234.546       8.9812852    
200 197.19338409000269507 -1003.5791909575156069 1927.8724596461304372 9.0277105200336400515 5386.0727254176199494 -251.19724025587228766 -3232.5250149105863784
       200   197.19338     -1003.5792      5386.0727     -251.19724     -3232.525       9.0277105    
300 226.72694177741013277 -1002.6502827293568316 1925.4414029568786191 9.0391088809573503227 4367.2133563286060962 5633.7616420462909446 7891.3462890771743332
       300   226.72694     -1002.6503      4367.2134      5633.7616      7891.3463      9.0391089    
400 288.77244739021386977 -1002.2226434122701448 1944.7673667629010197 8.9492834889554000455 -7755.1707242776883504 -5442.5405048559650822 -5092.5834047001071667
       400   288.77245     -1002.2226     -7755.1707     -5442.5405     -5092.5834      8.9492835    
500 297.4569174152026676 -1001.2256113379061162 1936.6248404961188498 8.9869106918880188317 -286.00973562257655658 -42.483259159457283261 7672.6872204874807721
       500   297.45692     -1001.2256     -286.00974     -42.483259      7672.6872      8.9869107    
600 325.46442785765418648 -1001.0125274992839195 1937.5795066762684655 8.9824827447137192138 9991.0992669526131067 7291.1620105871816122 -2896.2709831514648613
       600   325.46443     -1001.0125      9991.0993      7291.162      -2896.271       8.9824827    
700 311.72237466603752409 -1001.1509249574843352 1944.9454010690492396 8.9484642991336169615 -2942.9935853919732835 1327.3839404129143986 -9468.7349114390253817
       700   311.72237     -1001.1509     -2942.9936      1327.3839     -9468.7349      8.9484643    
800 305.37585406927757958 -1001.8003840929023909 1934.2389833694314802 8.9979959223613459329 -230.10502073411839774 -8168.0203377710422501 8152.1314111997871805
       800   305.37585     -1001.8004     -230.10502     -8168.0203      8152.1314      8.9979959    
900 284.66381669265035725 -1002.0014364285102602 1940.5719862315979753 8.968631212196312319 -2889.5186076658151251 -2547.7372838298019815 -1685.4807263063817118
       900   284.66382     -1002.0014     -2889.5186     -2547.7373     -1685.4807      8.9686312    
1000 283.3271065733478622 -1001.8029817108346151 1934.0559258373543798 8.998847578668272007 91.215982867527671374 8309.1666880469329044 -2528.2204201810391169
      1000   283.32711     -1001.803       91.215983      8309.1667     -2528.2204      8.9988476    
Loop time of 20.695 on 1 procs for 1000 steps with 128 atoms

Performance: 4.175 ns/day, 5.749 hours/ns, 48.321 timesteps/s, 6.185 katom-step/s
100.0% CPU use with 1 MPI tasks x no OpenMP threads

MPI task timing breakdown:
Section |  min time  |  avg time  |  max time  |%varavg| %total
---------------------------------------------------------------
Pair    | 20.678     | 20.678     | 20.678     |   0.0 | 99.92
Neigh   | 0.0023318  | 0.0023318  | 0.0023318  |   0.0 |  0.01
Comm    | 0.0020625  | 0.0020625  | 0.0020625  |   0.0 |  0.01
Output  | 0.0067553  | 0.0067553  | 0.0067553  |   0.0 |  0.03
Modify  | 0.0056041  | 0.0056041  | 0.0056041  |   0.0 |  0.03
Other   |            | 0.0006182  |            |       |  0.00

Nlocal:            128 ave         128 max         128 min
Histogram: 1 0 0 0 0 0 0 0 0 0
Nghost:            727 ave         727 max         727 min
Histogram: 1 0 0 0 0 0 0 0 0 0
Neighs:              0 ave           0 max           0 min
Histogram: 1 0 0 0 0 0 0 0 0 0
FullNghs:         4376 ave        4376 max        4376 min
Histogram: 1 0 0 0 0 0 0 0 0 0

Total # of neighbors = 4376
Ave neighs/atom = 34.1875
Neighbor list builds = 11
Dangerous builds = 0
undump		    1
unfix		    1
unfix		    2
variable	    newlx equal f_avg[1]
variable	    newly equal f_avg[2]
variable	    newlz equal f_avg[3]
change_box     all x final 0 ${newlx} y final 0 ${newly} z final 0 ${newlz} remap units box
change_box     all x final 0 12.4148346707718 y final 0 ${newly} z final 0 ${newlz} remap units box
change_box     all x final 0 12.4148346707718 y final 0 12.4687052813564 z final 0 ${newlz} remap units box
change_box     all x final 0 12.4148346707718 y final 0 12.4687052813564 z final 0 12.5034770045001 remap units box
Changing box ...
  orthogonal box = (0 0.070799863 -0.014543452) to (12.414835 12.4412 12.526543)
  orthogonal box = (0 0 -0.014543452) to (12.414835 12.468705 12.526543)
  orthogonal box = (0 0 0) to (12.414835 12.468705 12.503477)
unfix          avg
write_data     /home/winniebird/sfarrelly2024/test/test_projects/test_project_2/var_1/project/data/output/after_relax.data nocoeff
System init for write_data ...
# Add a minimisation (perfect mesh analysis)
dump           1 all custom 100 /home/winniebird/sfarrelly2024/test/test_projects/test_project_2/var_1/project/data/output/min_dump.cfg id type x y z v_sa_hydro v_sa_von
minimize	    0.0 0.02 200 1000
Switching to 'neigh_modify every 1 delay 0 check yes' setting during minimization
Per MPI rank memory allocation (min/avg/max) = 6.562 | 6.562 | 6.562 Mbytes
   Step          Temp          PotEng          Pxx            Pyy            Pzz          Density    
      1000   283.32711     -1001.8418      2813.9112      253.35039     -919.58604      8.9921351    
      1037   283.32711     -1007.1345     -8203.6773     -13817.836     -13363.381      8.9921351    
Loop time of 2.40564 on 1 procs for 37 steps with 128 atoms

100.0% CPU use with 1 MPI tasks x no OpenMP threads

Minimization stats:
  Stopping criterion = force tolerance
  Energy initial, next-to-last, final = 
     -1001.84175475724  -1007.13447577137  -1007.13451690958
  Force two-norm initial, final = 7.6340572 0.017727608
  Force max component initial, final = 1.2106551 0.0040786382
  Final line search alpha, max atom move = 1 0.0040786382
  Iterations, force evaluations = 37 71

MPI task timing breakdown:
Section |  min time  |  avg time  |  max time  |%varavg| %total
---------------------------------------------------------------
Pair    | 2.398      | 2.398      | 2.398      |   0.0 | 99.68
Neigh   | 0.00021899 | 0.00021899 | 0.00021899 |   0.0 |  0.01
Comm    | 0.00015885 | 0.00015885 | 0.00015885 |   0.0 |  0.01
Output  | 0          | 0          | 0          |   0.0 |  0.00
Modify  | 0          | 0          | 0          |   0.0 |  0.00
Other   |            | 0.007277   |            |       |  0.30

Nlocal:            128 ave         128 max         128 min
Histogram: 1 0 0 0 0 0 0 0 0 0
Nghost:            727 ave         727 max         727 min
Histogram: 1 0 0 0 0 0 0 0 0 0
Neighs:              0 ave           0 max           0 min
Histogram: 1 0 0 0 0 0 0 0 0 0
FullNghs:         4404 ave        4404 max        4404 min
Histogram: 1 0 0 0 0 0 0 0 0 0

Total # of neighbors = 4404
Ave neighs/atom = 34.40625
Neighbor list builds = 1
Dangerous builds = 0
undump         1
Total wall time: 0:00:35
