LAMMPS data file via write_data, version 2 Aug 2023, timestep = 1000, units = metal

128 atoms
5 atom types

0 12.504535244073 xlo xhi
0 12.4628496814135 ylo yhi
0 12.4446096052736 zlo zhi

Masses

1 58.693
2 58.933
3 47.867
4 91.224
5 178.49

Atoms # atomic

65 4 1.4115617072816729 1.5114859475306686 1.3668367909138341 0 0 0
66 4 4.736094146605941 1.4395416269072916 1.4896112647730386 0 0 0
67 4 7.807128088660604 1.3933004749531566 1.6625851348775618 0 0 0
21 1 12.234524443047713 3.284775107501343 3.0509532871988267 -1 0 0
24 1 9.432946237690604 3.347335131493155 2.9985796705296663 0 0 0
68 3 10.89027713989211 1.696475984905509 1.6327215113324107 0 0 0
69 4 1.66663063359164 4.724035846749343 1.5526276609623897 0 0 0
26 2 3.108575822963565 6.102440863021861 3.281893729085768 0 0 0
70 3 4.642028301107667 4.605767597042648 1.615038523641051 0 0 0
10 1 3.2918052317845032 6.194359690002539 12.204492560835288 0 0 -1
71 4 7.640938070701668 4.515229226754894 1.597043341155563 0 0 0
5 1 12.371141240924318 3.3530021101129512 0.24526803615777282 -1 0 0
8 2 9.441098714136453 3.015412237976073 0.03223849431276271 0 0 0
9 1 12.251947362588288 6.050596191784927 0.123750960696313 -1 0 0
12 1 9.136313596738347 5.921021085548347 0.01764851236671304 0 0 0
72 3 10.776764918062264 4.622122929435304 1.4727832689500446 0 0 0
73 4 1.3861054256018097 7.932154144541858 1.2705152345576047 0 0 0
74 5 4.671040351407476 7.7630288139974475 1.5935871869341753 0 0 0
75 4 7.667642805363539 7.874979777788099 1.3766805290552633 0 0 0
76 5 10.689429852345963 7.914255769906721 1.445737920274919 0 0 0
77 4 1.483753625690865 10.887525781027131 1.6093002921546504 0 0 0
18 2 3.2036358858874503 12.18311554161908 3.195545878210404 0 -1 0
78 3 4.6460590616270245 10.911600169879089 1.5833751611618505 0 0 0
14 2 3.3128102136421465 9.262924143601618 12.371018061393405 0 0 -1
79 5 7.754428421555519 10.800461598351326 1.7560539242885689 0 0 0
17 1 12.270668393819031 0.134675700661829 3.1342104294532747 -1 0 0
1 2 12.232603306371056 12.351040991884084 0.02085780663881005 -1 -1 0
80 3 10.831733467128757 11.062925299162368 1.619215427238266 0 0 0
81 4 1.483141700875072 1.5735549235635748 4.553243006550348 0 0 0
37 2 0.06614920294619675 3.3093968797587356 6.156910912393096 0 0 0
82 4 4.62451256475389 1.5068590491784013 4.588487643293669 0 0 0
83 5 8.02631446130159 1.7855061570022908 4.708175224470563 0 0 0
35 1 6.420418066265402 0.22348439032071882 6.070684610322322 0 0 0
84 3 11.00509305567731 1.6735960511289372 4.796418998612769 0 0 0
33 2 12.46252931186022 0.07119002174438634 6.035550265671883 -1 0 0
85 3 1.6053448758601783 4.668062733693872 4.671291075590756 0 0 0
22 1 3.1070479668515043 3.2124558083852133 3.242744528854149 0 0 0
23 1 6.264890093256477 3.2469789426795828 3.4609833302745376 0 0 0
27 1 6.266118779201683 6.2172340553198495 3.187965720360403 0 0 0
86 4 4.569835641611435 4.709964840210242 4.774469655684168 0 0 0
87 3 7.8159000017529765 4.786844828004052 4.738389014211405 0 0 0
44 2 9.408820738510327 6.263038516686401 6.2883945963392875 0 0 0
25 1 12.119727113439943 6.236475576104729 2.7787535319548318 -1 0 0
28 1 9.277039040853241 6.356402310103248 3.1257370524503636 0 0 0
88 5 10.919217547233796 4.763624094149947 4.6382247046931795 0 0 0
41 1 12.473425811589417 6.358805733382764 6.0601002510217326 -1 0 0
42 2 3.0270357350297727 6.3267949344616 6.129912787181224 0 0 0
89 5 1.4595022285345338 7.697279391247232 4.488736266786845 0 0 0
46 1 3.088123222478365 9.225736590760363 6.022763533352423 0 0 0
45 1 0.07409766545709863 9.135683717619386 6.358656461382968 0 0 0
90 3 4.676116169242878 7.65994147423042 4.701909009851941 0 0 0
43 2 6.37955450386582 6.308252504907727 6.1873014053536695 0 0 0
91 5 7.880600971800034 7.876538854830245 4.58604870363178 0 0 0
92 3 10.921823051461052 7.956717239511577 4.707675284027905 0 0 0
93 4 1.4097334707280154 10.95110437753548 4.732753897137619 0 0 0
30 1 3.195488248730395 9.359685058700796 3.1722627167217037 0 0 0
31 2 5.9447908941018675 9.351954797846151 3.0934883714254027 0 0 0
94 5 4.80666759474466 10.984650254983299 4.748510872202412 0 0 0
19 2 6.296070717855817 12.243761787202084 3.2841864950215913 0 -1 0
47 2 6.0721412274175375 9.205535089715557 6.1097494226003 0 0 0
95 3 7.757264545213102 10.938409307792046 4.700430723229044 0 0 0
20 1 9.545623683695833 0.05944820602914624 3.3525864996299806 0 0 0
29 1 12.128551472838852 9.473212280688092 3.1115656974977366 -1 0 0
32 1 9.460919261335071 9.519830420486564 3.237554890985778 0 0 0
36 1 9.344119872596243 12.305752422409364 6.132824935507857 0 -1 0
48 2 9.399192317459656 9.451006066604565 6.060529934008349 0 0 0
96 3 10.882276741240712 10.947365831511338 4.643702270701236 0 0 0
97 4 1.6633459038678386 1.489943584748284 7.648397739230312 0 0 0
98 5 4.79612646702291 1.65767987643419 7.788470081483783 0 0 0
34 2 3.121155543071942 0.02735616941317614 6.335857642710937 0 0 0
99 3 7.801874382020659 1.7026612283563913 7.778446313297751 0 0 0
56 2 9.162674577348836 3.0959635095046822 9.257443322394522 0 0 0
100 5 10.92146364591356 1.5189334200750415 7.834423946689975 0 0 0
38 2 3.1752648195570874 3.0753755389890944 6.130988898111562 0 0 0
101 5 1.7372432485041758 4.641632039654276 7.63503208567544 0 0 0
102 3 4.76418072494978 4.66659447975559 7.634236768833932 0 0 0
59 2 6.239350332872053 5.984250361931302 9.179961707360857 0 0 0
39 1 6.31321059952681 3.0927307470277605 6.101947342098151 0 0 0
40 1 9.210204291877709 3.303469778700565 6.5000259855509315 0 0 0
103 3 7.732145668860547 4.741527823142486 7.778945180025056 0 0 0
55 2 6.282302008143853 3.166475145650577 9.351315231481694 0 0 0
104 4 10.990861013640805 4.728143534371348 7.816450450871797 0 0 0
105 3 1.7329576745640733 7.586272152535589 7.680604295511219 0 0 0
57 1 0.2084320999505277 6.279545144463727 9.312557267043514 0 0 0
58 2 3.0827363049279186 6.213654309525529 9.154348332267968 0 0 0
61 2 0.36905837417777626 9.050623682162422 9.260439798901412 0 0 0
62 1 3.1442838393633408 9.459716715704035 9.529062267612149 0 0 0
106 5 4.779187435096417 7.706220931152624 7.5967470308807385 0 0 0
107 4 7.76137946549245 7.7981027611975495 7.8500837363809275 0 0 0
60 2 9.35071163191887 6.21920837102478 9.257584347429574 0 0 0
108 5 10.909277604597897 7.727187208712543 7.818435303429977 0 0 0
109 5 1.721667140638673 10.81201664667292 7.849325811008099 0 0 0
110 4 4.7962892997458395 10.839083231644492 7.850210094689012 0 0 0
111 5 7.843257234876344 10.946701998252761 7.827915264921154 0 0 0
112 5 11.132559110252862 10.849829181155018 7.885033235478337 0 0 0
53 1 0.3783441524983797 2.917496761939245 9.357072299280974 0 0 0
54 1 3.0742702855035 2.9892094711465873 9.327233085687755 0 0 0
113 3 1.7366144370469838 1.5002856637400586 10.905846299290566 0 0 0
6 2 3.262778132134086 3.1584644399981983 12.401046968856946 0 0 -1
50 2 3.178660388281628 0.03404073601773413 9.539467064857963 0 0 0
114 3 4.842918615423519 1.6476505626238556 10.960149517744478 0 0 0
115 5 7.865464682203951 1.4738553572114488 10.825983665430474 0 0 0
116 4 11.064339900793556 1.5286770975821453 10.944420459361583 0 0 0
49 1 0.18158875272533176 12.393007721940371 9.415848466707073 0 -1 0
117 5 1.5005777985040825 4.656833314377194 10.915619826069742 0 0 0
7 2 6.123876231955327 3.2401065998450465 12.348099992225428 0 0 -1
11 1 6.15599388296113 6.046094671433916 0.1257185010545375 0 0 0
118 4 4.507949528900966 4.683092121375549 10.66506208556077 0 0 0
119 5 7.776166590085777 4.5745011773331195 10.756105627142784 0 0 0
120 4 10.964252493596073 4.6047762154310465 10.854216191464937 0 0 0
121 3 1.7484431079994838 7.826519552914482 10.750092593160765 0 0 0
122 5 4.891800137765829 7.869382559450706 10.828313298502781 0 0 0
123 5 7.841254948727212 7.752385460341755 10.841851186990219 0 0 0
124 4 11.05722411005394 7.825277324350583 10.946855867699929 0 0 0
125 4 1.5618429721692408 10.818367480699486 11.025276390229445 0 0 0
2 2 3.2667421600324924 12.37470504532748 12.425603599154678 0 -1 -1
3 2 6.275018982870263 12.158497711211423 12.347323953402764 0 -1 -1
15 2 6.213215242702542 9.470179551898086 12.364563126816451 0 0 -1
51 1 6.13615708376495 12.445302131767038 9.469486250953754 0 -1 0
126 3 4.685442968597212 10.968405975957834 11.060382986968069 0 0 0
63 2 6.4013883266648595 9.433476645224776 9.612607073396427 0 0 0
127 3 7.7883294435485535 10.992523514255737 10.981339135695341 0 0 0
52 2 9.347638484249789 12.405020364852959 9.381703238472424 0 -1 0
64 1 9.226238009354203 9.673780446707305 9.461405821920415 0 0 0
4 1 9.425680620555545 0.004796500232385222 12.422661853344907 0 0 -1
13 2 12.155406851112527 9.700025886055064 0.12914963648371253 -1 0 0
16 2 9.270648358312025 9.738317957065739 12.38137551852619 0 0 -1
128 3 10.886649548374455 10.93958761804097 10.949618245008805 0 0 0

Velocities

65 -0.8684630878421077 1.5997604171943012 0.1393020137262903
66 -2.558064584881423 -5.197989957196713 0.15042540691624234
67 -2.2802816231009846 2.3041549022454855 0.050556556552541515
21 2.386436378138366 -3.181448637269718 -1.8416772157924817
24 4.1730091523081345 -2.5891957804458503 -1.6053376048012291
68 -3.3247690812276844 3.1141536102356473 -0.9566816044995659
69 -1.5061059544653626 -1.4027243675038896 0.7822531929627949
26 -0.24051782009797015 -0.42992609864939535 0.2078956962662451
70 -1.884864984026338 0.03079668582008576 -0.15368518551705876
10 -1.5303822406503589 -3.2455281613705167 1.5704061081819563
71 1.1342873625126175 0.5270314407488758 0.8739579561175249
5 -0.45561239751207144 2.3637709859040985 -0.23840641140282193
8 1.2703059392846818 0.6954654706377585 -0.015076771564131243
9 -4.247518977883582 -0.1345924552783806 -2.2480902056935625
12 1.1510453941729595 1.991041905817533 -0.5465132904614427
72 -1.7270954716101077 -2.0146703965181754 -2.8901298116321033
73 4.0107425340026435 -1.8580664219133314 1.99295731134145
74 0.35795531832671573 -1.8413517252369827 0.9668569698545734
75 0.478435080229751 1.0334458829947324 -0.46379326126134585
76 1.231083623435621 -2.000255423275368 -0.2524116758698117
77 0.12193358790068538 0.7116477751629837 0.2669318251027249
18 0.10762424918500262 3.6094970147696634 -5.222037869887371
78 -2.2686676990961647 -0.353297774622695 1.4594954225449583
14 -1.9956473513651807 -2.447492326521338 1.8877509607096075
79 1.184027620219774 -0.5233652821516623 -1.2795385697238353
17 -1.3035450122835741 1.095985355405901 0.7556714577942446
1 -0.7778263984071105 -0.915090056801634 1.4327140250407178
80 -0.3177053600471809 -4.796523183688117 -0.9729666347401673
81 2.513443319297446 -1.0168497045814786 -0.3047076544243229
37 1.3474014167257238 -0.3159375972388674 -0.6557840503706136
82 0.6020942758565226 0.8485220293635094 0.1584672750116966
83 -2.4583268085833847 1.0356204991425728 -0.9556245568718632
35 -1.1831478572764151 -0.1987651017296908 1.3742490942336563
84 2.282355545654271 1.1550082888221993 5.768809597896115
33 -0.27281460620325304 0.36818480916427104 0.7069590750608769
85 2.899926633113426 -0.8069124277337759 1.7770192278992547
22 1.4486357680188142 -3.3209917819948402 -0.653554439977345
23 -3.413243891491353 -0.20918116424652347 -2.3865835339097696
27 -2.3812692683593566 3.0128894437324782 -1.3577815363755554
86 2.1739134475161572 -1.7118919002219966 1.0247122166613079
87 1.6811590127163114 0.060645051415266764 -2.0810225042342387
44 1.489082900892349 -0.8522461294694849 0.07859112453825945
25 -0.16532831447736762 -4.393620579240276 2.182055808534216
28 -2.1412788529751543 -0.4476630282395624 0.795360771758859
88 -0.8186571435665141 0.4685465417433865 -0.30529100089245065
41 3.915638906045038 0.33939812213985804 -2.5929139540082966
42 -3.7470265416696593 0.45905459838800333 2.175041343919792
89 0.5333758192267404 0.7640871252681332 -1.1019041521170678
46 -1.7661720444916555 2.9642537012689054 -0.8076951240752133
45 1.2812476336387875 1.8975114479776194 0.2373060658542264
90 -2.7039202276275827 2.6353502588063433 -0.36986240521498265
43 2.6220157679082448 -0.4229539553656502 -0.9689534540627701
91 1.541679119590435 1.4904015542913889 -0.7821456834357317
92 2.425270477935292 -0.9155915654117155 1.2296654164254541
93 0.3113719547870786 -1.0258243415847998 1.50420905633629
30 2.0766354326773206 1.1763195180531818 -5.256861833047051
31 0.3141746805898473 3.9802848706507965 -2.3107982634445423
94 1.8658644346494628 1.3811104396151874 -1.0807487190093112
19 1.6530960945068203 2.346184509827222 1.0439854877772416
47 -1.6389509151681638 0.061319973971308554 0.6909972187995889
95 0.7663049013941257 -4.341191791239027 4.304758595378666
20 -3.6775374037280444 -2.8876053115766127 -0.0615067559127974
29 -0.9852070037780785 -0.4402227044625743 -4.31331342281702
32 -0.509632800902741 -1.253980770741519 -0.6412469815520064
36 1.783239950354767 -0.9323127525509968 1.1486051337840228
48 -2.041555361386583 1.5697521213966308 -2.3250522386667725
96 -5.795919253850014 3.2884080576714645 -0.7521303492922482
97 3.0231995951134367 -0.8027749549720611 0.031298735802150576
98 0.4774628437851931 0.09556489213936017 0.8148634557462916
34 -0.5042658823442357 0.29201394236550243 -1.175456735229807
99 4.014671863685466 2.953061890353764 2.4669804676903584
56 2.077160621542874 0.008331899222484852 -0.4495657566255243
100 0.429384088430259 0.38936701517051653 0.3283114460215516
38 -2.6614338713430605 5.98060460634795 0.5530115859950863
101 -0.057459500513785 1.902187950624337 3.28798181453733
102 0.8172190792397848 -0.9899698365136105 -1.3291823176034339
59 -3.043878222864781 -3.276872590535269 0.31326850936119566
39 -1.0556249914536326 -1.171928795776378 0.5781483453621815
40 3.4791254835285272 -3.04311620169263 1.3256331030581645
103 -0.9643812991606395 -3.244818108711543 -0.17890560974244185
55 0.7321200895264404 0.18188594191491342 0.029034752189857155
104 0.5443718110466268 -1.925513540443494 1.6686583319502273
105 -0.6960527614062786 0.47211496804890457 3.5955149535169197
57 -0.4853196122929676 -0.4046411496570899 0.49428678313699664
58 -0.43333324934527956 1.2666124561104173 -2.127016983317085
61 -0.7195841772115649 0.5307149527095947 1.1526021616948385
62 -0.742918424505079 3.0769455725243153 1.4777448332332774
106 1.248348873633217 1.0658780826224559 0.7122467339925587
107 -1.7130661724300027 -1.1501671828224125 0.7753340636028924
60 2.2585464012608245 4.626266801119823 -2.938801134785033
108 -0.8469485109350775 -0.849196185741356 0.9725875850824774
109 -0.43006470294315713 -1.011540226910622 -0.9908307746932555
110 -1.048776303281938 -1.3310269353459445 -2.770640748023696
111 -0.7586651328414852 0.8602600552782366 2.5651368018846994
112 0.7401505236543019 1.0208375253126043 -2.216865867579974
53 -1.4061678061944525 -0.14478942956544502 1.0809547366934935
54 2.518417377169155 -0.539325443127692 -3.06239096168879
113 0.4244085713193339 2.808601412924359 1.2472355380743345
6 2.654489134503702 -0.7526566727235678 -5.153962882981225
50 1.6151315696630746 -2.054225607670764 -2.1222738475026617
114 -2.2265076047934182 -1.82162764260584 3.014188078857807
115 0.3149616775131863 -0.4475633679457349 -0.5701117891132009
116 -0.48631311538541144 1.6245416566235789 3.450048990457048
49 -1.0799508285295043 3.373751389146079 0.24538104426017587
117 -0.4155446941158756 -0.08747014196428736 -0.09275864864938492
7 2.416846917157321 -0.662162619168104 1.2176259394147435
11 -0.8135012025939399 1.9632536864329606 5.617953418851089
118 -2.295287024383431 1.8286613299686514 -0.05497266603856637
119 0.6800427049682479 -0.36326108184248507 -0.031807946868883566
120 -1.7759339202152455 1.119334005184283 -0.9198325204205011
121 0.9232012037490858 -1.57306594289779 -0.6651276138859453
122 -0.03948187961929089 -0.22469145802453158 0.9956529517274766
123 -0.8733231266533329 -1.024859782088595 0.2115359621952544
124 -2.9449556001032917 -0.8399347259899926 -1.0853548417587064
125 -1.7328369806221986 0.9031366442555296 0.12585333919447986
2 0.3102073026241243 -1.4259964608117823 0.23599676831121444
3 1.5767101840492812 0.07467425533693488 -3.012742887883683
15 -0.10562857953472533 1.7354501266168356 -1.7846760012417147
51 2.013281092069004 0.9302255629303005 -1.5613195801576465
126 0.35176257605904654 -0.5144139058377614 -0.10577347223129233
63 2.3879525055928763 -0.395326027700354 0.7561672211119911
127 -3.6523438839354734 4.545516509976183 -0.5396722848598086
52 1.3454248531252204 -1.8451702166827828 1.6483930409160623
64 -1.3165541338499152 -0.4233714432491362 0.24749100201953406
4 0.7889541132332698 -3.477360918213728 1.3935807111190701
13 -4.7935238630989465 -1.8923327716306622 -0.5267099565686495
16 3.160258419278263 -0.694777916826398 -0.057187180308532405
128 -0.7657554831710606 2.00294705089085 -1.2322261820883151
