ITEM: TIMESTEP
0
ITEM: NUMBER OF ATOMS
128
ITEM: BOX BOUNDS pp pp pp
0.0000000000000000e+00 1.2504535244073001e+01
0.0000000000000000e+00 1.2462849681413500e+01
0.0000000000000000e+00 1.2444609605273600e+01
ITEM: ATOMS id type x y z
65 4 1.41156 1.51149 1.36684
66 4 4.73609 1.43954 1.48961
67 4 7.80713 1.3933 1.66259
68 3 10.8903 1.69648 1.63272
8 2 9.4411 3.01541 0.0322385
69 4 1.66663 4.72404 1.55263
70 3 4.64203 4.60577 1.61504
11 1 6.15599 6.04609 0.125719
71 4 7.64094 4.51523 1.59704
12 1 9.13631 5.92102 0.0176485
21 1 12.2345 3.28478 3.05095
24 1 9.43295 3.34734 2.99858
5 1 12.3711 3.353 0.245268
9 1 12.2519 6.0506 0.123751
72 3 10.7768 4.62212 1.47278
73 4 1.38611 7.93215 1.27052
74 5 4.67104 7.76303 1.59359
75 4 7.66764 7.87498 1.37668
76 5 10.6894 7.91426 1.44574
25 1 12.1197 6.23648 2.77875
77 4 1.48375 10.8875 1.6093
78 3 4.64606 10.9116 1.58338
31 2 5.94479 9.35195 3.09349
79 5 7.75443 10.8005 1.75605
1 2 12.2326 12.351 0.0208578
80 3 10.8317 11.0629 1.61922
13 2 12.1554 9.70003 0.12915
81 4 1.48314 1.57355 4.55324
82 4 4.62451 1.50686 4.58849
38 2 3.17526 3.07538 6.13099
83 5 8.02631 1.78551 4.70818
35 1 6.42042 0.223484 6.07068
39 1 6.31321 3.09273 6.10195
17 1 12.2707 0.134676 3.13421
84 3 11.0051 1.6736 4.79642
33 2 12.4625 0.07119 6.03555
20 1 9.54562 0.0594482 3.35259
26 2 3.10858 6.10244 3.28189
37 2 0.0661492 3.3094 6.15691
85 3 1.60534 4.66806 4.67129
22 1 3.10705 3.21246 3.24274
86 4 4.56984 4.70996 4.77447
23 1 6.26489 3.24698 3.46098
27 1 6.26612 6.21723 3.18797
87 3 7.8159 4.78684 4.73839
88 5 10.9192 4.76362 4.63822
42 2 3.02704 6.32679 6.12991
89 5 1.4595 7.69728 4.48874
46 1 3.08812 9.22574 6.02276
90 3 4.67612 7.65994 4.70191
47 2 6.07214 9.20554 6.10975
28 1 9.27704 6.3564 3.12574
43 2 6.37955 6.30825 6.1873
91 5 7.8806 7.87654 4.58605
41 1 12.4734 6.35881 6.0601
92 3 10.9218 7.95672 4.70768
93 4 1.40973 10.9511 4.73275
18 2 3.20364 12.1831 3.19555
30 1 3.19549 9.35969 3.17226
94 5 4.80667 10.9847 4.74851
19 2 6.29607 12.2438 3.28419
95 3 7.75726 10.9384 4.70043
36 1 9.34412 12.3058 6.13282
29 1 12.1286 9.47321 3.11157
32 1 9.46092 9.51983 3.23755
48 2 9.39919 9.45101 6.06053
96 3 10.8823 10.9474 4.6437
97 4 1.66335 1.48994 7.6484
34 2 3.12116 0.0273562 6.33586
54 1 3.07427 2.98921 9.32723
98 5 4.79613 1.65768 7.78847
99 3 7.80187 1.70266 7.77845
56 2 9.16267 3.09596 9.25744
100 5 10.9215 1.51893 7.83442
101 5 1.73724 4.64163 7.63503
58 2 3.08274 6.21365 9.15435
102 3 4.76418 4.66659 7.63424
59 2 6.23935 5.98425 9.17996
40 1 9.2102 3.30347 6.50003
103 3 7.73215 4.74153 7.77895
60 2 9.35071 6.21921 9.25758
104 4 10.9909 4.72814 7.81645
45 1 0.0740977 9.13568 6.35866
105 3 1.73296 7.58627 7.6806
57 1 0.208432 6.27955 9.31256
61 2 0.369058 9.05062 9.26044
106 5 4.77919 7.70622 7.59675
107 4 7.76138 7.7981 7.85008
44 2 9.40882 6.26304 6.28839
108 5 10.9093 7.72719 7.81844
109 5 1.72167 10.812 7.84933
110 4 4.79629 10.8391 7.85021
111 5 7.84326 10.9467 7.82792
112 5 11.1326 10.8498 7.88503
53 1 0.378344 2.9175 9.35707
113 3 1.73661 1.50029 10.9058
50 2 3.17866 0.0340407 9.53947
114 3 4.84292 1.64765 10.9601
115 5 7.86546 1.47386 10.826
116 4 11.0643 1.52868 10.9444
4 1 9.42568 0.0047965 12.4227
117 5 1.50058 4.65683 10.9156
10 1 3.29181 6.19436 12.2045
6 2 3.26278 3.15846 12.401
7 2 6.12388 3.24011 12.3481
118 4 4.50795 4.68309 10.6651
55 2 6.2823 3.16648 9.35132
119 5 7.77617 4.5745 10.7561
120 4 10.9643 4.60478 10.8542
121 3 1.74844 7.82652 10.7501
14 2 3.31281 9.26292 12.371
122 5 4.8918 7.86938 10.8283
123 5 7.84125 7.75239 10.8419
124 4 11.0572 7.82528 10.9469
49 1 0.181589 12.393 9.41585
125 4 1.56184 10.8184 11.0253
62 1 3.14428 9.45972 9.52906
2 2 3.26674 12.3747 12.4256
15 2 6.21322 9.47018 12.3646
51 1 6.13616 12.4453 9.46949
126 3 4.68544 10.9684 11.0604
3 2 6.27502 12.1585 12.3473
63 2 6.40139 9.43348 9.61261
127 3 7.78833 10.9925 10.9813
52 2 9.34764 12.405 9.3817
64 1 9.22624 9.67378 9.46141
16 2 9.27065 9.73832 12.3814
128 3 10.8866 10.9396 10.9496
ITEM: TIMESTEP
1000
ITEM: NUMBER OF ATOMS
128
ITEM: BOX BOUNDS pp pp pp
-4.5877550768214981e-02 1.2550412794841190e+01
3.2331200179461561e-02 1.2430518481234092e+01
5.3867119015444942e-03 1.2439222893372037e+01
ITEM: ATOMS id type x y z
65 4 1.41271 1.49785 1.74424
66 4 4.68231 1.58545 1.49763
67 4 7.70339 1.55274 1.62815
68 3 10.814 1.57377 1.56676
8 2 9.50702 3.12192 0.139621
69 4 1.59749 4.80624 1.59935
70 3 4.71906 4.64465 1.31279
11 1 6.10463 6.27453 12.383
71 4 7.91765 4.81067 1.59337
12 1 9.57915 6.42489 12.4479
21 1 12.2841 3.21866 3.12997
24 1 9.45028 3.20209 3.14062
5 1 12.408 3.07968 0.161208
9 1 12.3607 5.99064 0.261669
72 3 10.9121 4.60832 1.62657
73 4 1.41279 7.96707 1.27889
74 5 4.52689 7.79061 1.55082
75 4 7.82474 7.79373 1.60794
76 5 10.9484 7.93578 1.61818
25 1 12.3596 6.24587 3.1662
77 4 1.48577 10.9568 1.68751
78 3 4.56696 10.8529 1.52322
31 2 6.00401 9.31847 3.11252
79 5 7.72805 10.7541 1.50724
1 2 12.4584 0.20682 0.114298
80 3 10.9358 11.0701 1.47702
13 2 12.3601 9.63456 0.29304
81 4 1.51693 1.60049 4.66371
82 4 4.78831 1.71614 4.67046
38 2 3.34186 3.06951 6.29635
83 5 7.87088 1.63085 4.71451
35 1 6.2757 0.0545745 5.97602
39 1 6.37643 3.19544 6.2217
17 1 12.1897 12.3171 3.12604
84 3 10.7655 1.56621 4.69386
33 2 12.2449 12.5146 5.98769
20 1 9.49416 12.2666 3.25541
26 2 3.33889 6.28511 3.29092
37 2 0.0907913 3.16946 6.13516
85 3 1.59211 4.57836 4.58303
22 1 3.39444 3.39197 3.09565
86 4 4.82739 4.84914 4.83544
23 1 6.36723 3.47035 3.19672
27 1 6.01887 6.28947 2.90022
87 3 7.85035 4.77504 4.69276
88 5 10.9498 4.65361 4.66444
42 2 2.89825 6.21095 6.18996
89 5 1.54762 7.69406 4.58953
46 1 3.09019 9.13578 6.22235
90 3 4.79283 7.75503 4.74114
47 2 6.28022 9.29513 5.92355
28 1 9.43191 6.4747 3.29452
43 2 6.4453 6.23772 6.52395
91 5 7.8382 7.8642 4.77537
41 1 -0.00173142 6.20945 6.03324
92 3 10.9478 7.86657 4.6842
93 4 1.56074 11.0256 4.66657
18 2 3.57067 12.4149 3.12088
30 1 3.25307 9.42601 3.32466
94 5 4.72242 10.9137 4.67625
19 2 6.44246 12.3082 3.09503
95 3 7.76232 10.7807 4.6512
36 1 9.30945 12.0291 6.22294
29 1 12.3272 9.47081 3.30446
32 1 9.55358 9.69283 3.09521
48 2 9.49011 9.3565 6.15677
96 3 10.859 10.9191 4.73137
97 4 1.60722 1.3697 7.75828
34 2 3.26021 0.268461 6.08804
54 1 2.73135 2.73885 9.55914
98 5 4.73401 1.66963 7.88643
99 3 7.81985 1.64153 7.75686
56 2 9.24268 2.95107 9.23312
100 5 10.9323 1.49627 7.72031
101 5 1.63078 4.50911 7.67523
58 2 3.02548 6.11249 9.38868
102 3 4.82583 4.61017 7.74015
59 2 6.39963 6.24357 9.31812
40 1 9.25423 3.31028 6.36747
103 3 7.98007 4.65832 7.79631
60 2 9.36842 6.26794 9.1788
104 4 10.9653 4.51175 7.74891
45 1 12.5189 9.25486 6.14863
105 3 1.49242 7.55831 7.75844
57 1 0.159252 6.30338 9.18348
61 2 0.0815724 9.03535 9.07115
106 5 4.67936 7.60809 7.6828
107 4 7.80557 7.97036 7.77983
44 2 9.38704 6.26991 6.16773
108 5 10.9669 7.67673 7.63077
109 5 1.56415 10.7434 7.70877
110 4 4.56263 11.0497 7.83206
111 5 7.79825 10.9459 7.81162
112 5 11.0092 10.8394 7.77931
53 1 0.110205 2.95539 9.49617
113 3 1.44519 1.31447 11.2277
50 2 3.29899 12.3346 9.47126
114 3 4.63013 1.54907 10.8401
115 5 7.72927 1.65754 10.8714
116 4 10.8683 1.64818 10.9929
4 1 9.43717 12.3502 12.2796
117 5 1.37416 4.5958 10.9071
10 1 3.18895 6.17775 12.2428
6 2 3.17512 3.19704 0.0316811
7 2 6.02008 3.22162 0.000749265
118 4 4.62218 4.45783 10.6376
55 2 6.54483 3.21742 8.98128
119 5 7.95714 4.64725 10.8863
120 4 11.0009 4.85746 10.8194
121 3 1.54089 7.64055 10.7772
14 2 3.32663 9.2354 12.2291
122 5 4.78819 7.81619 10.6839
123 5 7.97982 7.81026 10.9159
124 4 11.1687 8.09091 10.9055
49 1 0.150811 12.4994 9.52058
125 4 1.3595 10.5415 10.9707
62 1 2.87446 9.10033 9.12496
2 2 3.2482 12.481 12.4761
15 2 6.07322 9.47376 0.0115075
51 1 6.19945 12.3182 9.55653
126 3 4.60518 10.9268 10.9013
3 2 6.11846 12.3807 12.2654
63 2 6.27422 9.66454 9.50726
127 3 7.87231 10.7725 11.0042
52 2 9.17344 12.4139 9.31569
64 1 9.42876 9.48234 9.4247
16 2 9.52693 9.67655 12.3528
128 3 10.9893 11.0365 10.8013
ITEM: TIMESTEP
2000
ITEM: NUMBER OF ATOMS
128
ITEM: BOX BOUNDS pp pp pp
-2.3388512749946244e-02 1.2527923756822926e+01
-1.6664870563630529e-02 1.2479514551977207e+01
3.4627018821344890e-03 1.2441146903391406e+01
ITEM: ATOMS id type x y z
65 4 1.35861 1.42103 1.34522
66 4 4.62733 1.5567 1.60406
2 2 3.44796 12.3971 12.2633
67 4 7.8413 1.63448 1.4903
68 3 10.922 1.48642 1.60654
8 2 9.71158 3.33737 0.29989
5 1 12.4393 3.05385 0.0385552
1 2 12.3575 12.4218 12.4034
69 4 1.55325 4.63846 1.56833
70 3 4.70418 4.64264 1.67791
22 1 3.29176 3.36611 3.09386
6 2 3.26541 3.06972 12.3669
71 4 7.91929 4.68544 1.64305
9 1 -0.01177 6.23941 12.3096
72 3 11.1027 4.69247 1.72563
73 4 1.55028 7.86428 1.4615
74 5 4.79915 7.92227 1.63386
31 2 6.32355 9.34602 2.97331
27 1 6.06682 6.10763 3.08692
75 4 7.92967 7.75787 1.65717
12 1 9.23322 6.19016 12.4213
76 5 10.9815 7.73367 1.61482
77 4 1.45951 10.8927 1.68735
78 3 4.81785 10.9937 1.37364
15 2 6.13022 9.46264 12.2348
79 5 7.81943 10.8607 1.46817
19 2 6.4173 12.4343 3.10959
80 3 10.839 10.976 1.63851
13 2 12.348 9.4958 0.0631348
32 1 9.46753 9.43851 3.09615
81 4 1.55583 1.44608 4.47928
82 4 4.68745 1.50262 4.66668
34 2 3.12108 12.3529 5.97737
83 5 7.86152 1.57902 4.57066
35 1 6.34499 12.3507 6.27309
84 3 10.9708 1.57499 4.72339
33 2 12.3522 12.4341 6.03428
37 2 0.177283 2.8961 6.03976
85 3 1.5916 4.63756 4.57928
42 2 2.88122 6.21241 6.26684
41 1 12.4526 6.42334 6.29183
86 4 4.64324 4.85738 4.89402
39 1 6.40113 3.26218 6.38075
23 1 6.12274 3.30021 3.27286
87 3 7.81384 4.68923 4.73197
21 1 12.3029 2.94245 2.97844
24 1 9.78511 3.02321 3.07055
88 5 11.0214 4.56107 4.81582
89 5 1.55107 7.87726 4.55951
26 2 3.08527 6.36503 3.13323
90 3 4.70504 7.69485 4.71461
47 2 6.13414 9.30721 6.03472
91 5 7.8124 7.70555 4.69861
44 2 9.3971 6.19396 6.0846
25 1 12.3875 6.17173 3.33432
28 1 9.79771 6.27316 3.28187
92 3 10.8254 7.78477 4.89119
45 1 12.4734 9.18796 6.41662
93 4 1.42742 10.9507 4.82242
18 2 3.13812 12.3958 2.92495
30 1 3.19248 9.61736 2.99919
94 5 4.6143 10.8852 4.5621
95 3 7.89372 10.8167 4.55067
17 1 11.9288 12.3879 3.18485
20 1 9.44473 12.1878 3.14903
29 1 12.0459 9.29763 3.08594
48 2 9.31482 9.36188 5.99428
96 3 10.791 10.7052 4.77004
97 4 1.57551 1.34288 7.71
38 2 3.07288 3.22337 6.10448
98 5 4.70584 1.7762 7.82102
99 3 7.89485 1.62051 7.755
56 2 9.14487 3.15221 9.12834
100 5 10.9524 1.49203 7.65896
101 5 1.45159 4.63793 7.56927
102 3 4.59346 4.7267 7.85092
40 1 9.04813 3.05979 6.17141
103 3 7.83892 4.62539 7.83015
55 2 6.50188 3.13374 9.03749
104 4 10.9046 4.66992 7.9064
46 1 3.16324 9.24708 6.02405
105 3 1.59434 7.79467 7.77802
57 1 0.244325 6.32186 9.2221
61 2 12.3807 9.42402 9.56105
62 1 3.36095 9.55076 9.36819
106 5 4.73957 7.86021 7.75168
43 2 6.58307 6.20081 6.17
59 2 6.30539 6.3172 9.27805
60 2 9.03462 6.13467 9.19628
107 4 7.85061 7.9021 7.83556
108 5 10.8897 7.81859 7.75142
109 5 1.41265 10.7931 8.08946
110 4 4.69433 11.0343 7.72564
36 1 9.2156 12.3659 5.84437
111 5 7.97583 10.9182 7.62055
52 2 9.37601 12.4041 9.44053
112 5 10.974 10.9914 7.83356
54 1 2.99995 2.81813 9.43365
53 1 0.0432478 3.11045 9.3204
113 3 1.4723 1.42408 10.8146
49 1 0.0539884 0.0437362 9.56096
114 3 4.85526 1.52344 10.9697
115 5 7.79401 1.50792 10.8122
116 4 10.9235 1.64762 10.8509
58 2 3.16246 6.42233 9.34442
117 5 1.7139 4.58691 10.7871
10 1 3.17806 6.23596 0.198791
7 2 6.17735 3.12705 0.08893
118 4 4.64986 4.65929 10.7591
119 5 7.77611 4.59359 11.028
120 4 10.9907 4.80944 10.8219
121 3 1.66322 7.89175 10.8324
11 1 5.93781 6.25915 0.0610719
14 2 3.3266 9.46442 12.4333
122 5 4.58952 7.87471 10.9137
123 5 7.77051 7.71342 10.9554
124 4 11.0336 7.78189 10.7879
125 4 1.57492 10.9002 11.1429
50 2 3.42643 0.0171636 9.57423
51 1 6.53823 12.3552 9.38473
126 3 4.85678 11.0796 10.8772
3 2 6.20627 0.0522313 0.0232595
63 2 6.17531 9.50703 9.52366
127 3 7.79634 10.898 10.9391
4 1 9.47287 12.4098 12.2256
64 1 9.27459 9.69024 9.50898
16 2 9.56477 9.49414 12.3663
128 3 10.8277 10.968 10.8903
ITEM: TIMESTEP
3000
ITEM: NUMBER OF ATOMS
128
ITEM: BOX BOUNDS pp pp pp
-7.1621300104752983e-02 1.2576156544177762e+01
2.1754078819646416e-02 1.2441095602593972e+01
7.6655003866692439e-03 1.2436944104886894e+01
ITEM: ATOMS id type x y z
65 4 1.37362 1.4026 1.41519
66 4 4.50807 1.65373 1.44278
3 2 6.17461 12.285 -0.0296166
67 4 7.75369 1.53231 1.53728
68 3 11.0434 1.56592 1.44818
5 1 -0.0386852 3.4095 12.7205
21 1 12.339 2.9835 3.11754
24 1 9.44774 2.95869 3.14221
69 4 1.68404 4.69527 1.67351
70 3 4.71906 4.80556 1.51376
22 1 3.24067 3.33065 3.26007
27 1 6.34511 6.29028 3.1749
7 2 6.04067 3.12485 12.3436
71 4 7.71293 4.53697 1.3489
8 2 9.666 3.25291 -0.0254753
72 3 11.0762 4.66396 1.62347
73 4 1.23617 8.03102 1.39442
74 5 4.5887 7.77093 1.53296
10 1 2.7991 6.35176 12.4856
11 1 5.99621 6.34454 12.3857
31 2 5.99894 9.39206 2.90404
75 4 7.68121 7.89139 1.63129
76 5 10.8753 7.82259 1.7063
29 1 12.4827 9.63502 3.13384
77 4 1.66321 10.9872 1.58608
78 3 4.67723 10.9569 1.6441
18 2 2.88237 -0.115015 3.18832
30 1 3.12437 9.28081 3.25842
79 5 7.83256 10.9432 1.61031
19 2 6.26209 12.4414 3.26841
80 3 11.0918 10.9891 1.53706
13 2 12.3797 9.48221 12.3958
32 1 9.61443 9.61278 3.23085
81 4 1.64911 1.55481 4.53526
37 2 12.669 3.16474 5.99401
82 4 4.86614 1.59316 4.54338
83 5 7.92162 1.58075 4.69779
40 1 9.31627 3.41512 6.13228
84 3 11.1406 1.56354 4.61118
85 3 1.50637 4.65271 4.72172
38 2 3.18964 3.21492 6.24827
86 4 4.61019 4.82967 4.77551
23 1 6.05766 3.35518 3.10929
87 3 7.80426 4.78296 4.61241
43 2 6.54744 6.34638 6.2565
88 5 10.944 4.73285 4.55398
44 2 9.20425 6.13821 6.23425
25 1 0.0458022 6.31486 3.07289
89 5 1.41881 7.84247 4.64585
26 2 2.94223 6.34868 3.17762
90 3 4.85685 7.91885 4.7744
47 2 6.31018 9.38195 6.12869
46 1 3.24344 9.11191 6.07126
91 5 7.95932 7.92455 4.60413
28 1 9.30352 6.10251 2.88332
92 3 10.7947 7.78962 4.70993
93 4 1.44616 10.9105 4.71205
34 2 3.1726 -0.157838 6.31332
94 5 4.74622 10.8877 4.57974
95 3 7.8912 10.9564 4.5244
48 2 9.27029 9.42666 6.18886
36 1 9.39807 12.3429 6.27427
33 2 12.4546 0.0311899 6.05445
17 1 12.1477 -0.0112982 3.07237
20 1 9.54034 0.258704 2.95832
96 3 10.7517 11.0112 4.69691
97 4 1.51228 1.40804 7.68506
98 5 4.7962 1.51755 7.74403
99 3 7.87154 1.59969 7.97098
100 5 11.0277 1.6486 7.68367
42 2 2.79094 6.26203 6.32271
101 5 1.60645 4.63946 7.82336
53 1 0.307573 2.9177 9.36731
102 3 4.8391 4.38879 7.78333
39 1 6.6459 3.30916 6.3067
56 2 9.60122 3.12693 9.38069
103 3 7.7996 4.71403 7.79266
55 2 6.37211 3.06512 9.27343
60 2 9.19422 6.24318 9.3772
104 4 11.1485 4.54863 7.80386
105 3 1.449 7.66856 7.6811
57 1 0.110078 6.55411 9.24864
106 5 4.54761 7.52138 7.71959
59 2 6.26653 6.08571 9.43075
107 4 7.70207 7.83219 7.82472
41 1 12.5945 6.18366 6.02289
45 1 12.2161 9.07527 6.38758
108 5 10.7432 7.62432 7.78167
109 5 1.59278 10.8275 7.80186
110 4 4.85542 10.8445 7.71485
35 1 6.15727 12.3131 6.1007
111 5 7.87117 10.8675 7.75598
112 5 11.045 10.8364 7.8341
54 1 3.15246 2.80919 9.26804
113 3 1.66671 1.40723 10.8999
49 1 12.4667 0.02792 9.20955
6 2 3.19876 2.91238 12.0493
114 3 4.68196 1.47643 10.7789
50 2 3.24766 12.3892 9.26894
115 5 7.99482 1.64442 10.9802
116 4 11.1983 1.57213 10.8701
117 5 1.54815 4.55871 10.8988
118 4 4.5783 4.70188 10.8016
12 1 9.59805 6.11705 0.28307
119 5 7.90933 4.66351 11.0078
120 4 10.9488 4.75243 10.7679
9 1 -0.0581513 6.05752 12.4438
121 3 1.674 7.77604 10.8844
58 2 2.94063 6.26858 9.28488
122 5 4.59256 7.87061 10.7769
123 5 7.80994 7.84415 11.0029
124 4 10.9476 7.81055 10.7196
125 4 1.52247 10.865 10.9231
2 2 3.35464 12.2655 12.3071
15 2 5.99008 9.48181 -0.0808547
62 1 3.01944 9.10155 9.11058
14 2 3.30865 9.39671 0.101905
126 3 4.67718 10.88 10.9055
63 2 6.47492 9.56285 9.77056
52 2 9.47997 0.0431461 9.29427
51 1 6.29698 12.3117 9.59138
127 3 7.76998 11.1533 11.1285
64 1 9.08675 9.61017 9.67538
1 2 12.3164 12.3072 0.140084
61 2 -0.0968925 9.20951 9.3404
4 1 9.531 12.3581 -0.0327046
16 2 9.60835 9.51099 0.175527
128 3 11.0759 10.9644 10.8705
ITEM: TIMESTEP
4000
ITEM: NUMBER OF ATOMS
128
ITEM: BOX BOUNDS pp pp pp
-7.4362208265802643e-02 1.2578897452338802e+01
1.3750186881615001e-02 1.2449099494532000e+01
1.5681528579417403e-02 1.2428928076694159e+01
ITEM: ATOMS id type x y z
65 4 1.4324 1.69321 1.52133
66 4 4.41973 1.47922 1.50225
67 4 7.81475 1.58284 1.63901
68 3 11.0247 1.61144 1.42839
20 1 9.5447 0.154388 3.23128
5 1 12.5071 3.01895 -0.102768
69 4 1.58303 4.73479 1.49285
9 1 0.0231276 6.4113 12.1072
70 3 4.61338 4.59652 1.51417
23 1 6.16269 3.25793 3.10639
71 4 7.93284 4.58119 1.71082
28 1 9.33186 5.98572 3.27632
72 3 11.1994 4.81722 1.60425
12 1 9.44225 6.20571 0.182103
73 4 1.473 7.91308 1.40332
10 1 3.06491 6.57094 0.00515236
25 1 12.3598 6.0597 3.23689
74 5 4.61099 7.81018 1.64481
75 4 7.86221 7.75275 1.57753
76 5 10.841 7.75874 1.71802
77 4 1.44461 11.0726 1.63046
31 2 6.2438 9.38962 3.10111
78 3 4.72362 10.8369 1.45193
14 2 3.20248 9.58377 0.0428516
79 5 7.84421 10.9046 1.72641
80 3 10.9502 11.1493 1.76666
17 1 12.2291 0.313533 2.99748
1 2 12.4173 0.0303385 0.080044
16 2 9.42251 9.68727 0.0803048
81 4 1.51559 1.47249 4.65034
82 4 4.72704 1.42987 4.4853
19 2 6.37796 12.474 2.96717
83 5 7.82986 1.76771 4.6612
21 1 12.3814 3.01115 3.0305
24 1 9.74046 3.16886 2.99594
84 3 11.0204 1.5613 4.5989
33 2 -0.0408311 12.2596 6.04404
37 2 0.0754795 3.23179 6.17458
85 3 1.59084 4.53411 4.55965
41 1 0.0332588 6.01422 5.97158
22 1 3.18873 3.3508 3.23648
86 4 4.76711 4.77388 4.77528
40 1 9.15962 3.07025 6.32528
87 3 7.8656 4.75622 4.93298
88 5 10.9572 4.44299 4.82853
89 5 1.36251 7.68734 4.61409
26 2 2.96157 6.26427 3.3657
30 1 3.15266 9.38218 3.31165
90 3 4.67785 7.74407 4.77429
46 1 2.94457 9.19056 6.21017
27 1 6.24982 6.37737 3.01918
91 5 7.81032 7.73545 4.67274
92 3 10.968 7.72912 4.81895
18 2 3.3212 12.2296 3.14123
93 4 1.57218 10.8345 4.59335
94 5 4.80091 10.8459 4.62108
35 1 6.51489 0.0720733 6.23699
47 2 6.30059 9.20481 6.35731
95 3 8.02635 10.8301 4.64533
48 2 9.30458 9.26037 6.08785
29 1 12.3014 9.35052 3.18475
32 1 9.5595 9.60608 3.11696
96 3 10.9656 11.1124 4.69929
97 4 1.52958 1.36423 7.66893
98 5 4.64259 1.45096 7.75649
54 1 2.99043 2.86519 9.26984
99 3 7.91899 1.53345 7.76496
55 2 6.30441 3.05603 9.20317
100 5 11.0494 1.67374 7.42646
49 1 12.6092 0.0814064 9.17241
52 2 9.21487 0.137141 9.15338
101 5 1.7448 4.71131 7.73634
38 2 3.08949 2.88652 6.23211
102 3 4.77131 4.64537 7.85997
44 2 9.30319 6.36143 6.30134
39 1 5.98938 2.82059 6.33182
103 3 7.63433 4.61568 7.75171
104 4 11.0065 4.70298 7.90926
42 2 3.00874 6.379 6.04336
105 3 1.36661 7.74329 7.96214
57 1 0.183183 6.61644 9.51546
58 2 2.90151 6.5879 9.39238
62 1 2.85003 9.20327 9.21631
106 5 4.51317 7.534 7.82267
43 2 6.27483 6.11733 6.31239
107 4 7.78258 7.82569 7.86759
45 1 12.1807 9.27258 6.00113
108 5 11.0163 7.72301 7.72861
109 5 1.55471 10.8183 7.63266
34 2 3.14663 12.4051 6.17929
110 4 4.66257 10.8043 7.76291
50 2 3.21226 12.2375 9.43746
36 1 9.38097 0.116659 5.86843
111 5 7.97964 10.8392 7.75455
112 5 10.9515 10.8632 7.72834
53 1 0.322563 2.73307 9.37705
113 3 1.49282 1.53317 10.8902
7 2 6.00634 3.11096 0.00624514
6 2 3.08617 2.86933 12.0869
114 3 4.67656 1.49964 10.8643
115 5 7.83502 1.49378 10.9202
116 4 11.0317 1.61979 10.8337
117 5 1.62004 4.7 10.7452
118 4 4.60852 4.58933 10.8583
59 2 6.2325 6.0661 9.29057
119 5 7.78661 4.5756 10.8767
8 2 9.63142 3.338 12.5595
56 2 9.35644 3.03599 9.10802
120 4 11.0954 4.82736 10.7596
121 3 1.59175 7.93892 10.9792
11 1 6.35525 6.07665 0.0935175
122 5 4.73009 7.85648 10.8762
60 2 9.27764 6.14021 9.29698
123 5 7.93636 7.91528 11.12
124 4 11.2174 8.25601 10.9354
61 2 12.5831 9.4733 9.07794
125 4 1.34851 10.9335 10.8814
3 2 6.24061 0.0423065 12.4934
2 2 3.32276 0.00127131 12.0472
15 2 6.2827 9.67315 12.3162
126 3 4.87675 10.9811 10.7453
63 2 6.48556 9.50448 9.50568
51 1 6.11145 0.201269 9.22673
127 3 7.89505 10.925 10.9335
64 1 9.19748 9.56481 9.51263
13 2 12.2717 9.69311 0.526115
4 1 9.4958 -0.106058 0.280448
128 3 10.8603 11.2516 11.0153
