ITEM: TIMESTEP
1000
ITEM: NUMBER OF ATOMS
128
ITEM: BOX BOUNDS pp pp pp
0.0000000000000000e+00 1.2504535244073001e+01
0.0000000000000000e+00 1.2462849681413500e+01
0.0000000000000000e+00 1.2444609605273600e+01
ITEM: ATOMS id type x y z v_sa_hydro v_sa_von
65 4 1.41156 1.51149 1.36684 -3.61854 6.01512
66 4 4.73609 1.43954 1.48961 -5.065 6.0809
67 4 7.80713 1.3933 1.66259 -10.5488 4.9348
68 3 10.8903 1.69648 1.63272 2.94669 9.82507
8 2 9.4411 3.01541 0.0322385 11.2214 5.52293
69 4 1.66663 4.72404 1.55263 -4.84957 12.5181
70 3 4.64203 4.60577 1.61504 4.67311 15.2168
11 1 6.15599 6.04609 0.125719 0.0403453 6.91934
71 4 7.64094 4.51523 1.59704 -10.6078 14.5943
12 1 9.13631 5.92102 0.0176485 -0.808287 3.52522
21 1 12.2345 3.28478 3.05095 3.53254 7.74333
24 1 9.43295 3.34734 2.99858 -3.37031 6.4744
5 1 12.3711 3.353 0.245268 -2.86314 8.72414
9 1 12.2519 6.0506 0.123751 -2.54561 11.0088
72 3 10.7768 4.62212 1.47278 -3.1207 11.6385
73 4 1.38611 7.93215 1.27052 -3.19017 9.37092
74 5 4.67104 7.76303 1.59359 4.08457 13.7661
75 4 7.66764 7.87498 1.37668 -19.9807 6.06251
76 5 10.6894 7.91426 1.44574 1.83072 11.6074
25 1 12.1197 6.23648 2.77875 2.87038 5.62449
77 4 1.48375 10.8875 1.6093 -8.98462 13.0219
78 3 4.64606 10.9116 1.58338 4.57976 6.42828
31 2 5.94479 9.35195 3.09349 2.24086 9.20291
79 5 7.75443 10.8005 1.75605 -1.14365 17.1703
1 2 12.2326 12.351 0.0208578 6.21136 13.3361
80 3 10.8317 11.0629 1.61922 2.92847 7.02782
13 2 12.1554 9.70003 0.12915 -0.547374 8.60394
81 4 1.48314 1.57355 4.55324 -12.2423 10.2375
82 4 4.62451 1.50686 4.58849 -16.5095 11.6627
38 2 3.17526 3.07538 6.13099 0.689663 12.4969
83 5 8.02631 1.78551 4.70818 -0.229136 16.631
35 1 6.42042 0.223484 6.07068 -0.075769 4.07408
39 1 6.31321 3.09273 6.10195 0.557399 7.37485
17 1 12.2707 0.134676 3.13421 4.21442 5.27519
84 3 11.0051 1.6736 4.79642 0.454927 12.1392
33 2 12.4625 0.07119 6.03555 7.19718 7.28788
20 1 9.54562 0.0594482 3.35259 1.91324 9.22805
26 2 3.10858 6.10244 3.28189 4.33166 9.27026
37 2 0.0661492 3.3094 6.15691 8.69518 7.1809
85 3 1.60534 4.66806 4.67129 -3.5612 4.06294
22 1 3.10705 3.21246 3.24274 1.14073 6.48127
86 4 4.56984 4.70996 4.77447 -18.6494 8.6669
23 1 6.26489 3.24698 3.46098 -1.13747 8.56225
27 1 6.26612 6.21723 3.18797 4.25057 3.57859
87 3 7.8159 4.78684 4.73839 0.366813 1.55012
88 5 10.9192 4.76362 4.63822 3.48738 11.2151
42 2 3.02704 6.32679 6.12991 -2.79073 9.12488
89 5 1.4595 7.69728 4.48874 5.93157 7.62197
46 1 3.08812 9.22574 6.02276 2.92858 4.07411
90 3 4.67612 7.65994 4.70191 0.212146 10.7911
47 2 6.07214 9.20554 6.10975 1.80295 10.7829
28 1 9.27704 6.3564 3.12574 3.19083 7.6017
43 2 6.37955 6.30825 6.1873 4.69598 8.29625
91 5 7.8806 7.87654 4.58605 6.02423 14.4875
41 1 12.4734 6.35881 6.0601 -1.25807 9.96993
92 3 10.9218 7.95672 4.70768 3.09897 7.92648
93 4 1.40973 10.9511 4.73275 -10.1292 6.63989
18 2 3.20364 12.1831 3.19555 6.19348 7.05181
30 1 3.19549 9.35969 3.17226 4.30945 3.74982
94 5 4.80667 10.9847 4.74851 -3.23373 13.0484
19 2 6.29607 12.2438 3.28419 0.687526 14.2554
95 3 7.75726 10.9384 4.70043 -2.20572 10.8303
36 1 9.34412 12.3058 6.13282 4.11885 3.13573
29 1 12.1286 9.47321 3.11157 0.426738 4.54925
32 1 9.46092 9.51983 3.23755 -6.15373 6.19768
48 2 9.39919 9.45101 6.06053 10.7185 3.54457
96 3 10.8823 10.9474 4.6437 1.33739 11.1428
97 4 1.66335 1.48994 7.6484 -15.1206 15.6299
34 2 3.12116 0.0273562 6.33586 4.5746 10.1484
54 1 3.07427 2.98921 9.32723 -1.93507 12.0932
98 5 4.79613 1.65768 7.78847 4.09225 7.47557
99 3 7.80187 1.70266 7.77845 0.508883 9.64215
56 2 9.16267 3.09596 9.25744 3.85703 6.91338
100 5 10.9215 1.51893 7.83442 6.21007 6.46992
101 5 1.73724 4.64163 7.63503 -1.80256 15.7744
58 2 3.08274 6.21365 9.15435 4.92147 10.5467
102 3 4.76418 4.66659 7.63424 -6.04134 12.9712
59 2 6.23935 5.98425 9.17996 0.927415 9.52829
40 1 9.2102 3.30347 6.50003 -1.96558 8.45231
103 3 7.73215 4.74153 7.77895 0.878024 15.7347
60 2 9.35071 6.21921 9.25758 3.65227 6.87419
104 4 10.9909 4.72814 7.81645 -12.7535 10.7773
45 1 0.0740977 9.13568 6.35866 2.67011 8.1562
105 3 1.73296 7.58627 7.6806 1.38169 8.26511
57 1 0.208432 6.27955 9.31256 0.723446 3.0418
61 2 0.369058 9.05062 9.26044 6.42284 5.71305
106 5 4.77919 7.70622 7.59675 -1.89528 11.8599
107 4 7.76138 7.7981 7.85008 -15.4966 8.92076
44 2 9.40882 6.26304 6.28839 9.91275 7.49186
108 5 10.9093 7.72719 7.81844 0.768265 12.943
109 5 1.72167 10.812 7.84933 -1.6095 7.91108
110 4 4.79629 10.8391 7.85021 -11.8828 9.68143
111 5 7.84326 10.9467 7.82792 5.08318 13.335
112 5 11.1326 10.8498 7.88503 6.36466 6.6365
53 1 0.378344 2.9175 9.35707 -0.379848 7.18831
113 3 1.73661 1.50029 10.9058 4.08313 8.65515
50 2 3.17866 0.0340407 9.53947 14.9241 5.61931
114 3 4.84292 1.64765 10.9601 6.14116 9.07782
115 5 7.86546 1.47386 10.826 -0.38256 9.44402
116 4 11.0643 1.52868 10.9444 -9.45814 13.142
4 1 9.42568 0.0047965 12.4227 2.23226 6.56476
117 5 1.50058 4.65683 10.9156 -3.14964 19.0703
10 1 3.29181 6.19436 12.2045 0.0553639 12.6253
6 2 3.26278 3.15846 12.401 10.8595 9.48013
7 2 6.12388 3.24011 12.3481 8.65945 7.71735
118 4 4.50795 4.68309 10.6651 -14.8324 20.0961
55 2 6.2823 3.16648 9.35132 3.53694 11.9875
119 5 7.77617 4.5745 10.7561 -4.81435 16.1241
120 4 10.9643 4.60478 10.8542 -14.1757 7.52923
121 3 1.74844 7.82652 10.7501 1.79008 7.12581
14 2 3.31281 9.26292 12.371 6.79803 8.81673
122 5 4.8918 7.86938 10.8283 -0.12803 12.6883
123 5 7.84125 7.75239 10.8419 -2.35219 18.2264
124 4 11.0572 7.82528 10.9469 -5.38378 12.3368
49 1 0.181589 12.393 9.41585 3.00133 4.52488
125 4 1.56184 10.8184 11.0253 -6.68787 13.7062
62 1 3.14428 9.45972 9.52906 -2.5177 11.0349
2 2 3.26674 12.3747 12.4256 10.7325 10.884
15 2 6.21322 9.47018 12.3646 2.53407 12.6054
51 1 6.13616 12.4453 9.46949 1.29143 9.27515
126 3 4.68544 10.9684 11.0604 4.40288 10.6277
3 2 6.27502 12.1585 12.3473 4.70298 11.9699
63 2 6.40139 9.43348 9.61261 0.635897 6.98824
127 3 7.78833 10.9925 10.9813 1.40634 15.9873
52 2 9.34764 12.405 9.3817 6.33356 6.9923
64 1 9.22624 9.67378 9.46141 -2.83588 8.19472
16 2 9.27065 9.73832 12.3814 3.25431 9.08991
128 3 10.8866 10.9396 10.9496 3.20936 10.0844
ITEM: TIMESTEP
1099
ITEM: NUMBER OF ATOMS
128
ITEM: BOX BOUNDS pp pp pp
0.0000000000000000e+00 1.2504535244073001e+01
0.0000000000000000e+00 1.2462849681413500e+01
0.0000000000000000e+00 1.2444609605273600e+01
ITEM: ATOMS id type x y z v_sa_hydro v_sa_von
65 4 1.22497 2.09725 1.36788 -6.6849 14.7351
66 4 4.12027 1.02487 1.61311 -4.85307 15.2985
67 4 7.57131 1.22587 1.38498 -3.87319 6.66466
68 3 10.5393 1.95309 1.63174 9.49655 8.66952
8 2 9.12289 3.29659 0.00792961 11.7638 7.8437
69 4 1.34596 5.12396 1.95927 0.772125 12.1004
70 3 4.21614 4.1226 1.57391 7.97744 15.0062
11 1 5.60344 5.52934 0.312438 -9.03912 9.53229
71 4 7.50155 4.32184 1.91329 4.8302 10.6851
12 1 9.03622 5.99548 0.475536 -13.4214 16.45
21 1 12.2853 3.22788 3.24878 3.84665 13.5525
24 1 9.63883 3.56991 3.45526 -3.98927 8.03771
5 1 11.8954 3.60776 0.398384 -8.56391 11.6367
9 1 0.10339 6.28364 12.4035 4.2485 17.5976
72 3 10.7303 5.01447 1.78559 1.70045 18.1034
73 4 1.088 8.3997 1.19113 2.56898 14.2694
74 5 3.98797 7.25164 1.54806 5.02337 13.9816
75 4 7.14463 7.43791 1.20324 -12.9555 22.4577
76 5 10.2681 8.23519 1.31911 13.1248 16.8554
25 1 11.899 6.89957 2.7747 -4.09037 7.51681
77 4 1.38838 11.4634 1.4964 2.3212 10.0251
78 3 4.44027 10.4773 1.39809 10.7703 9.87202
31 2 5.67508 8.85265 2.68518 -10.0084 14.5762
79 5 7.51781 10.5546 1.77076 9.91853 15.8109
1 2 12.0351 0.440399 0.17617 1.78262 11.904
80 3 10.4786 11.4117 1.49527 8.81149 10.4513
13 2 11.9475 10.1421 0.185832 -7.5366 7.52172
81 4 1.51917 1.08058 4.35612 1.74548 12.4903
82 4 4.63929 1.10104 4.97278 5.56659 8.21776
38 2 3.57478 3.17055 6.28542 -0.830967 10.9524
83 5 7.71717 2.02977 4.50039 7.55044 4.99559
35 1 6.70233 0.720144 6.60289 -5.46997 9.35655
39 1 6.78072 3.47907 6.50279 -4.41866 17.0878
17 1 11.9546 0.307441 2.91382 -0.140834 14.6403
84 3 10.9545 1.80275 4.66548 2.06552 15.4611
33 2 0.248978 12.0223 6.3057 2.66431 8.03147
20 1 9.28492 0.21316 3.32734 0.45275 9.46452
26 2 3.31414 5.65636 3.50741 -4.76537 10.4894
37 2 0.0777504 2.90609 6.23421 13.0239 5.6244
85 3 1.77385 4.18796 4.99599 7.49671 12.845
22 1 3.16179 2.93292 3.42281 -1.57477 10.5126
86 4 5.12966 4.3203 4.62876 -3.52394 14.4739
23 1 5.73643 2.49101 2.84334 -9.52905 12.2024
27 1 6.24573 6.27248 3.29187 -1.89201 19.7269
87 3 8.07636 5.08452 4.84926 -0.139636 16.0503
88 5 11.2281 5.14514 4.89014 15.4902 12.65
42 2 3.30972 6.02215 6.25659 6.68949 8.40281
89 5 1.41785 7.17759 4.47262 11.56 16.5587
46 1 2.94272 8.85004 5.84266 -3.53073 10.1555
90 3 4.57127 7.38914 4.63177 0.820731 17.9369
47 2 6.64185 9.75869 6.40099 -2.94552 10.9793
28 1 9.20647 6.42099 3.13042 3.70889 11.1269
43 2 6.52059 6.50715 6.14085 8.59433 5.41371
91 5 7.62702 8.30136 4.419 15.6783 11.1373
41 1 0.567645 5.65478 6.66328 -9.50626 7.66835
92 3 10.8332 8.29431 4.57925 13.3814 11.1119
93 4 1.26324 10.3976 4.41523 -3.31952 8.10983
18 2 3.33411 11.7517 3.25638 -5.55777 13.7172
30 1 3.08645 9.03785 3.1542 -5.24336 13.5542
94 5 4.91128 10.3389 4.55799 7.02566 24.5365
19 2 6.09215 12.2649 3.09893 5.86815 10.3889
95 3 7.6891 11.3937 4.84508 5.26505 18.0604
36 1 9.23563 0.476241 5.97352 -7.53656 11.4111
29 1 11.8795 9.78017 2.77981 -3.15069 15.2166
32 1 9.42959 10.0048 3.43163 -9.30529 6.54628
48 2 9.37867 9.77214 6.03632 3.22457 13.3562
96 3 10.9057 11.3265 4.83331 10.2401 15.4527
97 4 2.09934 1.17079 7.39069 3.2858 16.7546
34 2 2.96545 11.7268 5.76312 -7.77111 9.94375
54 1 2.88563 2.37156 9.70621 -15.0409 7.92979
98 5 5.06393 2.08507 8.21591 8.04219 12.6474
99 3 8.27676 2.10699 7.90611 4.65119 7.00538
56 2 9.17815 3.60085 9.65239 -4.02496 13.1317
100 5 11.1267 1.05078 7.6663 7.95908 13.1307
101 5 2.19082 4.29586 8.08174 4.28703 16.6676
58 2 3.56969 6.31854 9.13441 2.77589 11.1549
102 3 5.13572 5.09784 7.60054 4.47125 3.54539
59 2 6.55178 6.58802 9.04958 2.63809 4.54731
40 1 9.6234 3.23939 6.11744 2.6094 9.59941
103 3 8.25747 5.11586 7.72203 8.19162 16.4817
60 2 9.28099 6.42651 9.31064 -5.44634 10.9026
104 4 11.2625 4.18235 8.18245 0.669783 12.2837
45 1 0.268651 8.88469 6.33404 -4.38918 10.0895
105 3 1.89006 7.39884 7.7089 2.61129 10.8229
57 1 0.315184 6.13661 9.40545 2.68218 9.7821
61 2 0.549008 8.77404 8.96421 -8.69628 12.2928
106 5 4.91445 8.14309 7.63398 11.9431 9.97985
107 4 8.15327 8.1956 7.72814 -7.28724 15.3404
44 2 9.31524 6.84104 5.81054 -1.7939 6.29601
108 5 11.169 7.2207 7.59193 8.30979 14.2064
109 5 1.91192 10.4939 7.70706 1.27176 21.0805
110 4 4.88498 11.3836 7.54266 -3.09499 17.8815
111 5 8.11314 11.3979 7.87621 5.88114 18.4049
112 5 11.2409 10.3858 7.86959 8.40356 12.7314
53 1 0.479115 2.39191 9.02299 -6.5366 11.7617
113 3 1.47769 0.934708 11.0227 10.2587 11.0373
50 2 3.19901 12.2018 9.44756 6.72831 10.7375
114 3 4.52503 1.1805 11.1026 -2.23769 17.5414
115 5 7.4987 1.92693 10.7537 8.80007 17.0017
116 4 10.9821 2.11289 10.8261 3.11977 10.6245
4 1 9.40596 0.48767 12.1673 -4.6979 12.7877
117 5 1.20923 4.11857 11.0507 9.25751 11.3223
10 1 3.01785 5.6774 12.1781 -1.58275 9.12122
6 2 3.1292 2.81501 12.2509 -3.63614 13.854
7 2 5.87949 2.87464 0.118954 7.96896 10.4613
118 4 4.565 4.23917 10.5848 2.01799 11.6988
55 2 6.7 3.79745 9.03517 -13.5386 10.3189
119 5 7.52652 5.06039 11.0454 6.31202 22.4961
120 4 10.6702 5.29827 11.0817 -3.87816 12.3324
121 3 1.93796 7.34178 10.804 9.21161 5.64895
14 2 3.35388 9.09665 12.181 2.31911 6.34136
122 5 5.07208 7.52875 10.9213 11.3288 7.62781
123 5 8.23049 8.10245 10.9345 2.53062 28.0214
124 4 11.4072 8.40596 10.7817 0.467545 15.3332
49 1 0.435322 12.2045 9.06254 -1.52375 4.91238
125 4 1.41938 10.4184 10.8769 0.506497 10.2246
62 1 3.23944 8.97945 9.4955 -4.74356 9.2108
2 2 3.18403 11.9332 12.1437 -3.70728 10.3708
15 2 6.21772 9.49288 12.2064 0.326135 15.1707
51 1 6.15877 12.3683 9.55448 -1.6361 10.3423
126 3 4.70145 10.6564 10.727 11.3168 11.5811
3 2 5.89747 12.1486 0.0555904 5.16641 12.2959
63 2 6.52747 9.56195 9.36669 12.7618 8.38989
127 3 7.72579 11.2587 11.0619 12.6294 23.2832
52 2 9.30955 0.398515 9.57045 0.47669 12.7844
64 1 9.34243 9.99246 9.64418 -7.64366 8.16603
16 2 9.32652 10.055 12.2744 -6.44201 12.8659
128 3 10.9614 11.524 10.8661 11.2327 19.1153
