 # Bcc Fe oriented X=[100], Y=[010], Z=[001].
  
       16000  atoms
           1  atom types
 
      0.000000000000      57.560000000000  xlo xhi
      0.000000000000      57.560000000000  ylo yhi
      0.000000000000      57.560000000000  zlo zhi
 
Masses
 
            1   55.84500000             # Fe
 
Atoms # atomic
 
         1    1        0.000000000000      -1.079250000000       0.000000000000
         2    1        1.439000000000       0.359750000000       1.439000000000
         3    1        2.878000000000      -1.103335562325       0.000000000000
         4    1        4.317000000000       0.334329024764       1.439000000000
         5    1        5.756000000000      -1.129936310680       0.000000000000
         6    1        7.195000000000       0.306108582409       1.439000000000
         7    1        8.634000000000      -1.159258238524       0.000000000000
         8    1       10.073000000000       0.274851755876       1.439000000000
         9    1       11.512000000000      -1.191461968613       0.000000000000
        10    1       12.951000000000       0.240381614893       1.439000000000
        11    1       14.390000000000      -1.226627174201       0.000000000000
        12    1       15.829000000000       0.202628595447       1.439000000000
        13    1       17.268000000000      -1.264709843051       0.000000000000
        14    1       18.707000000000       0.161686515119       1.439000000000
        15    1       20.146000000000      -1.305498819707       0.000000000000
        16    1       21.585000000000       0.117866594009       1.439000000000
        17    1       23.024000000000      -1.348583373166       0.000000000000
        18    1       24.463000000000       0.071731164994       1.439000000000
        19    1       25.902000000000      -1.393346980417       0.000000000000
        20    1       27.341000000000       0.024085562325       1.439000000000
        21    1       28.780000000000       1.439000000000       0.000000000000
        22    1       30.219000000000       2.853914437675       1.439000000000
        23    1       31.658000000000       1.393346980417       0.000000000000
        24    1       33.097000000000       2.806268835006       1.439000000000
        25    1       34.536000000000       1.348583373166       0.000000000000
        26    1       35.975000000000       2.760133405991       1.439000000000
        27    1       37.414000000000       1.305498819707       0.000000000000
        28    1       38.853000000000       2.716313484881       1.439000000000
        29    1       40.292000000000       1.264709843051       0.000000000000
        30    1       41.731000000000       2.675371404553       1.439000000000
        31    1       43.170000000000       1.226627174201       0.000000000000
        32    1       44.609000000000       2.637618385107       1.439000000000
        33    1       46.048000000000       1.191461968613       0.000000000000
        34    1       47.487000000000       2.603148244124       1.439000000000
        35    1       48.926000000000       1.159258238524       0.000000000000
        36    1       50.365000000000       2.571891417591       1.439000000000
        37    1       51.804000000000       1.129936310680       0.000000000000
        38    1       53.243000000000       2.543670975236       1.439000000000
        39    1       54.682000000000       1.103335562325       0.000000000000
        40    1       56.121000000000       2.518250000000       1.439000000000
        41    1        0.000000000000       1.798750000000       0.000000000000
        42    1        1.439000000000       3.237750000000       1.439000000000
        43    1        2.878000000000       1.774664437675       0.000000000000
        44    1        4.317000000000       3.212329024764       1.439000000000
        45    1        5.756000000000       1.748063689320       0.000000000000
        46    1        7.195000000000       3.184108582409       1.439000000000
        47    1        8.634000000000       1.718741761476       0.000000000000
        48    1       10.073000000000       3.152851755876       1.439000000000
        49    1       11.512000000000       1.686538031387       0.000000000000
        50    1       12.951000000000       3.118381614893       1.439000000000
        51    1       14.390000000000       1.651372825799       0.000000000000
        52    1       15.829000000000       3.080628595447       1.439000000000
        53    1       17.268000000000       1.613290156949       0.000000000000
        54    1       18.707000000000       3.039686515119       1.439000000000
        55    1       20.146000000000       1.572501180293       0.000000000000
        56    1       21.585000000000       2.995866594009       1.439000000000
        57    1       23.024000000000       1.529416626834       0.000000000000
        58    1       24.463000000000       2.949731164994       1.439000000000
        59    1       25.902000000000       1.484653019583       0.000000000000
        60    1       27.341000000000       2.902085562325       1.439000000000
        61    1       28.780000000000       4.317000000000       0.000000000000
        62    1       30.219000000000       5.731914437675       1.439000000000
        63    1       31.658000000000       4.271346980417       0.000000000000
        64    1       33.097000000000       5.684268835006       1.439000000000
        65    1       34.536000000000       4.226583373166       0.000000000000
        66    1       35.975000000000       5.638133405991       1.439000000000
        67    1       37.414000000000       4.183498819707       0.000000000000
        68    1       38.853000000000       5.594313484881       1.439000000000
        69    1       40.292000000000       4.142709843051       0.000000000000
        70    1       41.731000000000       5.553371404553       1.439000000000
        71    1       43.170000000000       4.104627174201       0.000000000000
        72    1       44.609000000000       5.515618385107       1.439000000000
        73    1       46.048000000000       4.069461968613       0.000000000000
        74    1       47.487000000000       5.481148244124       1.439000000000
        75    1       48.926000000000       4.037258238524       0.000000000000
        76    1       50.365000000000       5.449891417591       1.439000000000
        77    1       51.804000000000       4.007936310680       0.000000000000
        78    1       53.243000000000       5.421670975236       1.439000000000
        79    1       54.682000000000       3.981335562325       0.000000000000
        80    1       56.121000000000       5.396250000000       1.439000000000
        81    1        0.000000000000       4.676750000000       0.000000000000
        82    1        1.439000000000       6.115750000000       1.439000000000
        83    1        2.878000000000       4.652664437675       0.000000000000
        84    1        4.317000000000       6.090329024764       1.439000000000
        85    1        5.756000000000       4.626063689320       0.000000000000
        86    1        7.195000000000       6.062108582409       1.439000000000
        87    1        8.634000000000       4.596741761476       0.000000000000
        88    1       10.073000000000       6.030851755876       1.439000000000
        89    1       11.512000000000       4.564538031387       0.000000000000
        90    1       12.951000000000       5.996381614893       1.439000000000
        91    1       14.390000000000       4.529372825799       0.000000000000
        92    1       15.829000000000       5.958628595447       1.439000000000
        93    1       17.268000000000       4.491290156949       0.000000000000
        94    1       18.707000000000       5.917686515119       1.439000000000
        95    1       20.146000000000       4.450501180293       0.000000000000
        96    1       21.585000000000       5.873866594009       1.439000000000
        97    1       23.024000000000       4.407416626834       0.000000000000
        98    1       24.463000000000       5.827731164994       1.439000000000
        99    1       25.902000000000       4.362653019583       0.000000000000
       100    1       27.341000000000       5.780085562325       1.439000000000
       101    1       28.780000000000       7.195000000000       0.000000000000
       102    1       30.219000000000       8.609914437675       1.439000000000
       103    1       31.658000000000       7.149346980417       0.000000000000
       104    1       33.097000000000       8.562268835006       1.439000000000
       105    1       34.536000000000       7.104583373166       0.000000000000
       106    1       35.975000000000       8.516133405991       1.439000000000
       107    1       37.414000000000       7.061498819707       0.000000000000
       108    1       38.853000000000       8.472313484881       1.439000000000
       109    1       40.292000000000       7.020709843051       0.000000000000
       110    1       41.731000000000       8.431371404553       1.439000000000
       111    1       43.170000000000       6.982627174201       0.000000000000
       112    1       44.609000000000       8.393618385107       1.439000000000
       113    1       46.048000000000       6.947461968613       0.000000000000
       114    1       47.487000000000       8.359148244124       1.439000000000
       115    1       48.926000000000       6.915258238524       0.000000000000
       116    1       50.365000000000       8.327891417591       1.439000000000
       117    1       51.804000000000       6.885936310680       0.000000000000
       118    1       53.243000000000       8.299670975236       1.439000000000
       119    1       54.682000000000       6.859335562325       0.000000000000
       120    1       56.121000000000       8.274250000000       1.439000000000
       121    1        0.000000000000       7.554750000000       0.000000000000
       122    1        1.439000000000       8.993750000000       1.439000000000
       123    1        2.878000000000       7.530664437675       0.000000000000
       124    1        4.317000000000       8.968329024764       1.439000000000
       125    1        5.756000000000       7.504063689320       0.000000000000
       126    1        7.195000000000       8.940108582409       1.439000000000
       127    1        8.634000000000       7.474741761476       0.000000000000
       128    1       10.073000000000       8.908851755876       1.439000000000
       129    1       11.512000000000       7.442538031387       0.000000000000
       130    1       12.951000000000       8.874381614893       1.439000000000
       131    1       14.390000000000       7.407372825799       0.000000000000
       132    1       15.829000000000       8.836628595447       1.439000000000
       133    1       17.268000000000       7.369290156949       0.000000000000
       134    1       18.707000000000       8.795686515119       1.439000000000
       135    1       20.146000000000       7.328501180293       0.000000000000
       136    1       21.585000000000       8.751866594009       1.439000000000
       137    1       23.024000000000       7.285416626834       0.000000000000
       138    1       24.463000000000       8.705731164994       1.439000000000
       139    1       25.902000000000       7.240653019583       0.000000000000
       140    1       27.341000000000       8.658085562325       1.439000000000
       141    1       28.780000000000      10.073000000000       0.000000000000
       142    1       30.219000000000      11.487914437675       1.439000000000
       143    1       31.658000000000      10.027346980417       0.000000000000
       144    1       33.097000000000      11.440268835006       1.439000000000
       145    1       34.536000000000       9.982583373166       0.000000000000
       146    1       35.975000000000      11.394133405991       1.439000000000
       147    1       37.414000000000       9.939498819707       0.000000000000
       148    1       38.853000000000      11.350313484881       1.439000000000
       149    1       40.292000000000       9.898709843051       0.000000000000
       150    1       41.731000000000      11.309371404553       1.439000000000
       151    1       43.170000000000       9.860627174201       0.000000000000
       152    1       44.609000000000      11.271618385107       1.439000000000
       153    1       46.048000000000       9.825461968613       0.000000000000
       154    1       47.487000000000      11.237148244124       1.439000000000
       155    1       48.926000000000       9.793258238524       0.000000000000
       156    1       50.365000000000      11.205891417591       1.439000000000
       157    1       51.804000000000       9.763936310680       0.000000000000
       158    1       53.243000000000      11.177670975236       1.439000000000
       159    1       54.682000000000       9.737335562325       0.000000000000
       160    1       56.121000000000      11.152250000000       1.439000000000
       161    1        0.000000000000      10.432750000000       0.000000000000
       162    1        1.439000000000      11.871750000000       1.439000000000
       163    1        2.878000000000      10.408664437675       0.000000000000
       164    1        4.317000000000      11.846329024764       1.439000000000
       165    1        5.756000000000      10.382063689320       0.000000000000
       166    1        7.195000000000      11.818108582409       1.439000000000
       167    1        8.634000000000      10.352741761476       0.000000000000
       168    1       10.073000000000      11.786851755876       1.439000000000
       169    1       11.512000000000      10.320538031387       0.000000000000
       170    1       12.951000000000      11.752381614893       1.439000000000
       171    1       14.390000000000      10.285372825799       0.000000000000
       172    1       15.829000000000      11.714628595447       1.439000000000
       173    1       17.268000000000      10.247290156949       0.000000000000
       174    1       18.707000000000      11.673686515119       1.439000000000
       175    1       20.146000000000      10.206501180293       0.000000000000
       176    1       21.585000000000      11.629866594009       1.439000000000
       177    1       23.024000000000      10.163416626834       0.000000000000
       178    1       24.463000000000      11.583731164994       1.439000000000
       179    1       25.902000000000      10.118653019583       0.000000000000
       180    1       27.341000000000      11.536085562325       1.439000000000
       181    1       28.780000000000      12.951000000000       0.000000000000
       182    1       30.219000000000      14.365914437675       1.439000000000
       183    1       31.658000000000      12.905346980417       0.000000000000
       184    1       33.097000000000      14.318268835006       1.439000000000
       185    1       34.536000000000      12.860583373166       0.000000000000
       186    1       35.975000000000      14.272133405991       1.439000000000
       187    1       37.414000000000      12.817498819707       0.000000000000
       188    1       38.853000000000      14.228313484881       1.439000000000
       189    1       40.292000000000      12.776709843051       0.000000000000
       190    1       41.731000000000      14.187371404553       1.439000000000
       191    1       43.170000000000      12.738627174201       0.000000000000
       192    1       44.609000000000      14.149618385107       1.439000000000
       193    1       46.048000000000      12.703461968613       0.000000000000
       194    1       47.487000000000      14.115148244124       1.439000000000
       195    1       48.926000000000      12.671258238524       0.000000000000
       196    1       50.365000000000      14.083891417591       1.439000000000
       197    1       51.804000000000      12.641936310680       0.000000000000
       198    1       53.243000000000      14.055670975236       1.439000000000
       199    1       54.682000000000      12.615335562325       0.000000000000
       200    1       56.121000000000      14.030250000000       1.439000000000
       201    1        0.000000000000      13.310750000000       0.000000000000
       202    1        1.439000000000      14.749750000000       1.439000000000
       203    1        2.878000000000      13.286664437675       0.000000000000
       204    1        4.317000000000      14.724329024764       1.439000000000
       205    1        5.756000000000      13.260063689320       0.000000000000
       206    1        7.195000000000      14.696108582409       1.439000000000
       207    1        8.634000000000      13.230741761476       0.000000000000
       208    1       10.073000000000      14.664851755876       1.439000000000
       209    1       11.512000000000      13.198538031387       0.000000000000
       210    1       12.951000000000      14.630381614893       1.439000000000
       211    1       14.390000000000      13.163372825799       0.000000000000
       212    1       15.829000000000      14.592628595447       1.439000000000
       213    1       17.268000000000      13.125290156949       0.000000000000
       214    1       18.707000000000      14.551686515119       1.439000000000
       215    1       20.146000000000      13.084501180293       0.000000000000
       216    1       21.585000000000      14.507866594009       1.439000000000
       217    1       23.024000000000      13.041416626834       0.000000000000
       218    1       24.463000000000      14.461731164994       1.439000000000
       219    1       25.902000000000      12.996653019583       0.000000000000
       220    1       27.341000000000      14.414085562325       1.439000000000
       221    1       28.780000000000      15.829000000000       0.000000000000
       222    1       30.219000000000      17.243914437675       1.439000000000
       223    1       31.658000000000      15.783346980417       0.000000000000
       224    1       33.097000000000      17.196268835006       1.439000000000
       225    1       34.536000000000      15.738583373166       0.000000000000
       226    1       35.975000000000      17.150133405991       1.439000000000
       227    1       37.414000000000      15.695498819707       0.000000000000
       228    1       38.853000000000      17.106313484881       1.439000000000
       229    1       40.292000000000      15.654709843051       0.000000000000
       230    1       41.731000000000      17.065371404553       1.439000000000
       231    1       43.170000000000      15.616627174201       0.000000000000
       232    1       44.609000000000      17.027618385107       1.439000000000
       233    1       46.048000000000      15.581461968613       0.000000000000
       234    1       47.487000000000      16.993148244124       1.439000000000
       235    1       48.926000000000      15.549258238524       0.000000000000
       236    1       50.365000000000      16.961891417591       1.439000000000
       237    1       51.804000000000      15.519936310680       0.000000000000
       238    1       53.243000000000      16.933670975236       1.439000000000
       239    1       54.682000000000      15.493335562325       0.000000000000
       240    1       56.121000000000      16.908250000000       1.439000000000
       241    1        0.000000000000      16.188750000000       0.000000000000
       242    1        1.439000000000      17.627750000000       1.439000000000
       243    1        2.878000000000      16.164664437675       0.000000000000
       244    1        4.317000000000      17.602329024764       1.439000000000
       245    1        5.756000000000      16.138063689320       0.000000000000
       246    1        7.195000000000      17.574108582409       1.439000000000
       247    1        8.634000000000      16.108741761476       0.000000000000
       248    1       10.073000000000      17.542851755876       1.439000000000
       249    1       11.512000000000      16.076538031387       0.000000000000
       250    1       12.951000000000      17.508381614893       1.439000000000
       251    1       14.390000000000      16.041372825799       0.000000000000
       252    1       15.829000000000      17.470628595447       1.439000000000
       253    1       17.268000000000      16.003290156949       0.000000000000
       254    1       18.707000000000      17.429686515119       1.439000000000
       255    1       20.146000000000      15.962501180293       0.000000000000
       256    1       21.585000000000      17.385866594009       1.439000000000
       257    1       23.024000000000      15.919416626834       0.000000000000
       258    1       24.463000000000      17.339731164994       1.439000000000
       259    1       25.902000000000      15.874653019583       0.000000000000
       260    1       27.341000000000      17.292085562325       1.439000000000
       261    1       28.780000000000      18.707000000000       0.000000000000
       262    1       30.219000000000      20.121914437675       1.439000000000
       263    1       31.658000000000      18.661346980417       0.000000000000
       264    1       33.097000000000      20.074268835006       1.439000000000
       265    1       34.536000000000      18.616583373166       0.000000000000
       266    1       35.975000000000      20.028133405991       1.439000000000
       267    1       37.414000000000      18.573498819707       0.000000000000
       268    1       38.853000000000      19.984313484881       1.439000000000
       269    1       40.292000000000      18.532709843051       0.000000000000
       270    1       41.731000000000      19.943371404553       1.439000000000
       271    1       43.170000000000      18.494627174201       0.000000000000
       272    1       44.609000000000      19.905618385107       1.439000000000
       273    1       46.048000000000      18.459461968613       0.000000000000
       274    1       47.487000000000      19.871148244124       1.439000000000
       275    1       48.926000000000      18.427258238524       0.000000000000
       276    1       50.365000000000      19.839891417591       1.439000000000
       277    1       51.804000000000      18.397936310680       0.000000000000
       278    1       53.243000000000      19.811670975236       1.439000000000
       279    1       54.682000000000      18.371335562325       0.000000000000
       280    1       56.121000000000      19.786250000000       1.439000000000
       281    1        0.000000000000      19.066750000000       0.000000000000
       282    1        1.439000000000      20.505750000000       1.439000000000
       283    1        2.878000000000      19.042664437675       0.000000000000
       284    1        4.317000000000      20.480329024764       1.439000000000
       285    1        5.756000000000      19.016063689320       0.000000000000
       286    1        7.195000000000      20.452108582409       1.439000000000
       287    1        8.634000000000      18.986741761476       0.000000000000
       288    1       10.073000000000      20.420851755876       1.439000000000
       289    1       11.512000000000      18.954538031387       0.000000000000
       290    1       12.951000000000      20.386381614893       1.439000000000
       291    1       14.390000000000      18.919372825799       0.000000000000
       292    1       15.829000000000      20.348628595447       1.439000000000
       293    1       17.268000000000      18.881290156949       0.000000000000
       294    1       18.707000000000      20.307686515119       1.439000000000
       295    1       20.146000000000      18.840501180293       0.000000000000
       296    1       21.585000000000      20.263866594009       1.439000000000
       297    1       23.024000000000      18.797416626834       0.000000000000
       298    1       24.463000000000      20.217731164994       1.439000000000
       299    1       25.902000000000      18.752653019583       0.000000000000
       300    1       27.341000000000      20.170085562325       1.439000000000
       301    1       28.780000000000      21.585000000000       0.000000000000
       302    1       30.219000000000      22.999914437675       1.439000000000
       303    1       31.658000000000      21.539346980417       0.000000000000
       304    1       33.097000000000      22.952268835006       1.439000000000
       305    1       34.536000000000      21.494583373166       0.000000000000
       306    1       35.975000000000      22.906133405991       1.439000000000
       307    1       37.414000000000      21.451498819707       0.000000000000
       308    1       38.853000000000      22.862313484881       1.439000000000
       309    1       40.292000000000      21.410709843051       0.000000000000
       310    1       41.731000000000      22.821371404553       1.439000000000
       311    1       43.170000000000      21.372627174201       0.000000000000
       312    1       44.609000000000      22.783618385107       1.439000000000
       313    1       46.048000000000      21.337461968613       0.000000000000
       314    1       47.487000000000      22.749148244124       1.439000000000
       315    1       48.926000000000      21.305258238524       0.000000000000
       316    1       50.365000000000      22.717891417591       1.439000000000
       317    1       51.804000000000      21.275936310680       0.000000000000
       318    1       53.243000000000      22.689670975236       1.439000000000
       319    1       54.682000000000      21.249335562325       0.000000000000
       320    1       56.121000000000      22.664250000000       1.439000000000
       321    1        0.000000000000      21.944750000000       0.000000000000
       322    1        1.439000000000      23.383750000000       1.439000000000
       323    1        2.878000000000      21.920664437675       0.000000000000
       324    1        4.317000000000      23.358329024764       1.439000000000
       325    1        5.756000000000      21.894063689320       0.000000000000
       326    1        7.195000000000      23.330108582409       1.439000000000
       327    1        8.634000000000      21.864741761476       0.000000000000
       328    1       10.073000000000      23.298851755876       1.439000000000
       329    1       11.512000000000      21.832538031387       0.000000000000
       330    1       12.951000000000      23.264381614893       1.439000000000
       331    1       14.390000000000      21.797372825799       0.000000000000
       332    1       15.829000000000      23.226628595447       1.439000000000
       333    1       17.268000000000      21.759290156949       0.000000000000
       334    1       18.707000000000      23.185686515119       1.439000000000
       335    1       20.146000000000      21.718501180293       0.000000000000
       336    1       21.585000000000      23.141866594009       1.439000000000
       337    1       23.024000000000      21.675416626834       0.000000000000
       338    1       24.463000000000      23.095731164994       1.439000000000
       339    1       25.902000000000      21.630653019583       0.000000000000
       340    1       27.341000000000      23.048085562325       1.439000000000
       341    1       28.780000000000      24.463000000000       0.000000000000
       342    1       30.219000000000      25.877914437675       1.439000000000
       343    1       31.658000000000      24.417346980417       0.000000000000
       344    1       33.097000000000      25.830268835006       1.439000000000
       345    1       34.536000000000      24.372583373166       0.000000000000
       346    1       35.975000000000      25.784133405991       1.439000000000
       347    1       37.414000000000      24.329498819707       0.000000000000
       348    1       38.853000000000      25.740313484881       1.439000000000
       349    1       40.292000000000      24.288709843051       0.000000000000
       350    1       41.731000000000      25.699371404553       1.439000000000
       351    1       43.170000000000      24.250627174201       0.000000000000
       352    1       44.609000000000      25.661618385107       1.439000000000
       353    1       46.048000000000      24.215461968613       0.000000000000
       354    1       47.487000000000      25.627148244124       1.439000000000
       355    1       48.926000000000      24.183258238524       0.000000000000
       356    1       50.365000000000      25.595891417591       1.439000000000
       357    1       51.804000000000      24.153936310680       0.000000000000
       358    1       53.243000000000      25.567670975236       1.439000000000
       359    1       54.682000000000      24.127335562325       0.000000000000
       360    1       56.121000000000      25.542250000000       1.439000000000
       361    1        0.000000000000      24.822750000000       0.000000000000
       362    1        1.439000000000      26.261750000000       1.439000000000
       363    1        2.878000000000      24.798664437675       0.000000000000
       364    1        4.317000000000      26.236329024764       1.439000000000
       365    1        5.756000000000      24.772063689320       0.000000000000
       366    1        7.195000000000      26.208108582409       1.439000000000
       367    1        8.634000000000      24.742741761476       0.000000000000
       368    1       10.073000000000      26.176851755876       1.439000000000
       369    1       11.512000000000      24.710538031387       0.000000000000
       370    1       12.951000000000      26.142381614893       1.439000000000