/home/sez26/TIGP-IIP/LargeHEA/HEA_I.lmp (written by ASE) 

27648 	 atoms 
5  atom types
0.0      68.784000000000006  xlo xhi
0.0      68.784000000000006  ylo yhi
0.0      68.784000000000006  zlo zhi


Atoms 

     1   2                       0                       0                       0
     2   1      2.8660000000000001                       0                       0
     3   2      5.7320000000000002                       0                       0
     4   2      8.5980000000000008                       0                       0
     5   4                  11.464                       0                       0
     6   2                   14.33                       0                       0
     7   3      17.196000000000002                       0                       0
     8   1      20.062000000000001                       0                       0
     9   3      22.928000000000001                       0                       0
    10   4                  25.794                       0                       0
    11   1                   28.66                       0                       0
    12   2                  31.526                       0                       0
    13   2      34.392000000000003                       0                       0
    14   5      37.258000000000003                       0                       0
    15   4      40.124000000000002                       0                       0
    16   1      42.990000000000002                       0                       0
    17   5      45.856000000000002                       0                       0
    18   3      48.722000000000001                       0                       0
    19   5      51.588000000000001                       0                       0
    20   1      54.454000000000001                       0                       0
    21   3                   57.32                       0                       0
    22   2                  60.186                       0                       0
    23   1                  63.052                       0                       0
    24   1      65.918000000000006                       0                       0
    25   2                       0      2.8660000000000001                       0
    26   5      2.8660000000000001      2.8660000000000001                       0
    27   3      5.7320000000000002      2.8660000000000001                       0
    28   2      8.5980000000000008      2.8660000000000001                       0
    29   3                  11.464      2.8660000000000001                       0
    30   4                   14.33      2.8660000000000001                       0
    31   1      17.196000000000002      2.8660000000000001                       0
    32   5      20.062000000000001      2.8660000000000001                       0
    33   2      22.928000000000001      2.8660000000000001                       0
    34   1                  25.794      2.8660000000000001                       0
    35   5                   28.66      2.8660000000000001                       0
    36   1                  31.526      2.8660000000000001                       0
    37   1      34.392000000000003      2.8660000000000001                       0
    38   1      37.258000000000003      2.8660000000000001                       0
    39   1      40.124000000000002      2.8660000000000001                       0
    40   2      42.990000000000002      2.8660000000000001                       0
    41   3      45.856000000000002      2.8660000000000001                       0
    42   3      48.722000000000001      2.8660000000000001                       0
    43   1      51.588000000000001      2.8660000000000001                       0
    44   5      54.454000000000001      2.8660000000000001                       0
    45   1                   57.32      2.8660000000000001                       0
    46   5                  60.186      2.8660000000000001                       0
    47   3                  63.052      2.8660000000000001                       0
    48   1      65.918000000000006      2.8660000000000001                       0
    49   2                       0      5.7320000000000002                       0
    50   1      2.8660000000000001      5.7320000000000002                       0
    51   2      5.7320000000000002      5.7320000000000002                       0
    52   2      8.5980000000000008      5.7320000000000002                       0
    53   1                  11.464      5.7320000000000002                       0
    54   5                   14.33      5.7320000000000002                       0
    55   1      17.196000000000002      5.7320000000000002                       0
    56   2      20.062000000000001      5.7320000000000002                       0
    57   2      22.928000000000001      5.7320000000000002                       0
    58   2                  25.794      5.7320000000000002                       0
    59   2                   28.66      5.7320000000000002                       0
    60   1                  31.526      5.7320000000000002                       0
    61   5      34.392000000000003      5.7320000000000002                       0
    62   1      37.258000000000003      5.7320000000000002                       0
    63   4      40.124000000000002      5.7320000000000002                       0
    64   4      42.990000000000002      5.7320000000000002                       0
    65   4      45.856000000000002      5.7320000000000002                       0
    66   4      48.722000000000001      5.7320000000000002                       0
    67   4      51.588000000000001      5.7320000000000002                       0
    68   2      54.454000000000001      5.7320000000000002                       0
    69   2                   57.32      5.7320000000000002                       0
    70   4                  60.186      5.7320000000000002                       0
    71   1                  63.052      5.7320000000000002                       0
    72   2      65.918000000000006      5.7320000000000002                       0
    73   1                       0      8.5980000000000008                       0
    74   3      2.8660000000000001      8.5980000000000008                       0
    75   1      5.7320000000000002      8.5980000000000008                       0
    76   3      8.5980000000000008      8.5980000000000008                       0
    77   1                  11.464      8.5980000000000008                       0
    78   1                   14.33      8.5980000000000008                       0
    79   1      17.196000000000002      8.5980000000000008                       0
    80   2      20.062000000000001      8.5980000000000008                       0
    81   5      22.928000000000001      8.5980000000000008                       0
    82   2                  25.794      8.5980000000000008                       0
    83   2                   28.66      8.5980000000000008                       0
    84   2                  31.526      8.5980000000000008                       0
    85   4      34.392000000000003      8.5980000000000008                       0
    86   3      37.258000000000003      8.5980000000000008                       0
    87   5      40.124000000000002      8.5980000000000008                       0
    88   2      42.990000000000002      8.5980000000000008                       0
    89   1      45.856000000000002      8.5980000000000008                       0
    90   2      48.722000000000001      8.5980000000000008                       0
    91   4      51.588000000000001      8.5980000000000008                       0
    92   3      54.454000000000001      8.5980000000000008                       0
    93   2                   57.32      8.5980000000000008                       0
    94   4                  60.186      8.5980000000000008                       0
    95   2                  63.052      8.5980000000000008                       0
    96   3      65.918000000000006      8.5980000000000008                       0
    97   1                       0                  11.464                       0
    98   3      2.8660000000000001                  11.464                       0
    99   4      5.7320000000000002                  11.464                       0
   100   1      8.5980000000000008                  11.464                       0
   101   4                  11.464                  11.464                       0
   102   3                   14.33                  11.464                       0
   103   3      17.196000000000002                  11.464                       0
   104   1      20.062000000000001                  11.464                       0
   105   4      22.928000000000001                  11.464                       0
   106   1                  25.794                  11.464                       0
   107   2                   28.66                  11.464                       0
   108   2                  31.526                  11.464                       0
   109   2      34.392000000000003                  11.464                       0
   110   1      37.258000000000003                  11.464                       0
   111   5      40.124000000000002                  11.464                       0
   112   1      42.990000000000002                  11.464                       0
   113   3      45.856000000000002                  11.464                       0
   114   1      48.722000000000001                  11.464                       0
   115   2      51.588000000000001                  11.464                       0
   116   5      54.454000000000001                  11.464                       0
   117   4                   57.32                  11.464                       0
   118   4                  60.186                  11.464                       0
   119   1                  63.052                  11.464                       0
   120   4      65.918000000000006                  11.464                       0
   121   1                       0                   14.33                       0
   122   3      2.8660000000000001                   14.33                       0
   123   3      5.7320000000000002                   14.33                       0
   124   5      8.5980000000000008                   14.33                       0
   125   3                  11.464                   14.33                       0
   126   1                   14.33                   14.33                       0
   127   4      17.196000000000002                   14.33                       0
   128   2      20.062000000000001                   14.33                       0
   129   2      22.928000000000001                   14.33                       0
   130   1                  25.794                   14.33                       0
   131   3                   28.66                   14.33                       0
   132   1                  31.526                   14.33                       0
   133   5      34.392000000000003                   14.33                       0
   134   4      37.258000000000003                   14.33                       0
   135   1      40.124000000000002                   14.33                       0
   136   5      42.990000000000002                   14.33                       0
   137   2      45.856000000000002                   14.33                       0
   138   2      48.722000000000001                   14.33                       0
   139   1      51.588000000000001                   14.33                       0
   140   4      54.454000000000001                   14.33                       0
   141   4                   57.32                   14.33                       0
   142   4                  60.186                   14.33                       0
   143   4                  63.052                   14.33                       0
   144   5      65.918000000000006                   14.33                       0
   145   1                       0      17.196000000000002                       0
   146   4      2.8660000000000001      17.196000000000002                       0
   147   4      5.7320000000000002      17.196000000000002                       0
   148   4      8.5980000000000008      17.196000000000002                       0
   149   4                  11.464      17.196000000000002                       0
   150   4                   14.33      17.196000000000002                       0
   151   2      17.196000000000002      17.196000000000002                       0
   152   4      20.062000000000001      17.196000000000002                       0
   153   2      22.928000000000001      17.196000000000002                       0
   154   3                  25.794      17.196000000000002                       0
   155   4                   28.66      17.196000000000002                       0
   156   4                  31.526      17.196000000000002                       0
   157   4      34.392000000000003      17.196000000000002                       0
   158   4      37.258000000000003      17.196000000000002                       0
   159   4      40.124000000000002      17.196000000000002                       0
   160   1      42.990000000000002      17.196000000000002                       0
   161   4      45.856000000000002      17.196000000000002                       0
   162   1      48.722000000000001      17.196000000000002                       0
   163   5      51.588000000000001      17.196000000000002                       0
   164   3      54.454000000000001      17.196000000000002                       0
   165   5                   57.32      17.196000000000002                       0
   166   1                  60.186      17.196000000000002                       0
   167   3                  63.052      17.196000000000002                       0
   168   3      65.918000000000006      17.196000000000002                       0
   169   4                       0      20.062000000000001                       0
   170   2      2.8660000000000001      20.062000000000001                       0
   171   1      5.7320000000000002      20.062000000000001                       0
   172   4      8.5980000000000008      20.062000000000001                       0
   173   2                  11.464      20.062000000000001                       0
   174   2                   14.33      20.062000000000001                       0
   175   1      17.196000000000002      20.062000000000001                       0
   176   4      20.062000000000001      20.062000000000001                       0
   177   1      22.928000000000001      20.062000000000001                       0
   178   3                  25.794      20.062000000000001                       0
   179   2                   28.66      20.062000000000001                       0
   180   2                  31.526      20.062000000000001                       0
   181   2      34.392000000000003      20.062000000000001                       0
   182   2      37.258000000000003      20.062000000000001                       0
   183   1      40.124000000000002      20.062000000000001                       0
   184   2      42.990000000000002      20.062000000000001                       0
   185   1      45.856000000000002      20.062000000000001                       0
   186   5      48.722000000000001      20.062000000000001                       0
   187   5      51.588000000000001      20.062000000000001                       0
   188   1      54.454000000000001      20.062000000000001                       0
   189   5                   57.32      20.062000000000001                       0
   190   2                  60.186      20.062000000000001                       0
   191   4                  63.052      20.062000000000001                       0
   192   2      65.918000000000006      20.062000000000001                       0
   193   1                       0      22.928000000000001                       0
   194   1      2.8660000000000001      22.928000000000001                       0
   195   4      5.7320000000000002      22.928000000000001                       0
   196   2      8.5980000000000008      22.928000000000001                       0
   197   2                  11.464      22.928000000000001                       0
   198   3                   14.33      22.928000000000001                       0
   199   2      17.196000000000002      22.928000000000001                       0
   200   1      20.062000000000001      22.928000000000001                       0
   201   2      22.928000000000001      22.928000000000001                       0
   202   3                  25.794      22.928000000000001                       0
   203   2                   28.66      22.928000000000001                       0
   204   2                  31.526      22.928000000000001                       0
   205   3      34.392000000000003      22.928000000000001                       0
   206   5      37.258000000000003      22.928000000000001                       0
   207   1      40.124000000000002      22.928000000000001                       0
   208   1      42.990000000000002      22.928000000000001                       0
   209   3      45.856000000000002      22.928000000000001                       0
   210   1      48.722000000000001      22.928000000000001                       0
   211   2      51.588000000000001      22.928000000000001                       0
   212   1      54.454000000000001      22.928000000000001                       0
   213   1                   57.32      22.928000000000001                       0
   214   4                  60.186      22.928000000000001                       0
   215   5                  63.052      22.928000000000001                       0
   216   2      65.918000000000006      22.928000000000001                       0
   217   4                       0                  25.794                       0
   218   5      2.8660000000000001                  25.794                       0
   219   5      5.7320000000000002                  25.794                       0
   220   4      8.5980000000000008                  25.794                       0
   221   2                  11.464                  25.794                       0
   222   1                   14.33                  25.794                       0
   223   5      17.196000000000002                  25.794                       0
   224   5      20.062000000000001                  25.794                       0
   225   1      22.928000000000001                  25.794                       0
   226   2                  25.794                  25.794                       0
   227   2                   28.66                  25.794                       0
   228   3                  31.526                  25.794                       0
   229   3      34.392000000000003                  25.794                       0
   230   2      37.258000000000003                  25.794                       0
   231   4      40.124000000000002                  25.794                       0
   232   4      42.990000000000002                  25.794                       0
   233   3      45.856000000000002                  25.794                       0
   234   3      48.722000000000001                  25.794                       0
   235   5      51.588000000000001                  25.794                       0
   236   3      54.454000000000001                  25.794                       0
   237   2                   57.32                  25.794                       0
   238   3                  60.186                  25.794                       0
   239   3                  63.052                  25.794                       0
   240   1      65.918000000000006                  25.794                       0
   241   3                       0                   28.66                       0
   242   1      2.8660000000000001                   28.66                       0
   243   4      5.7320000000000002                   28.66                       0
   244   4      8.5980000000000008                   28.66                       0
   245   3                  11.464                   28.66                       0
   246   2                   14.33                   28.66                       0
   247   1      17.196000000000002                   28.66                       0
   248   2      20.062000000000001                   28.66                       0
   249   1      22.928000000000001                   28.66                       0
   250   2                  25.794                   28.66                       0
   251   2                   28.66                   28.66                       0
   252   3                  31.526                   28.66                       0
   253   5      34.392000000000003                   28.66                       0
   254   5      37.258000000000003                   28.66                       0
   255   4      40.124000000000002                   28.66                       0
   256   3      42.990000000000002                   28.66                       0
   257   4      45.856000000000002                   28.66                       0
   258   5      48.722000000000001                   28.66                       0
   259   5      51.588000000000001                   28.66                       0
   260   2      54.454000000000001                   28.66                       0
   261   5                   57.32                   28.66                       0
   262   1                  60.186                   28.66                       0
   263   1                  63.052                   28.66                       0
   264   1      65.918000000000006                   28.66                       0
   265   1                       0                  31.526                       0
   266   2      2.8660000000000001                  31.526                       0
   267   3      5.7320000000000002                  31.526                       0
   268   2      8.5980000000000008                  31.526                       0
   269   2                  11.464                  31.526                       0
   270   3                   14.33                  31.526                       0
   271   1      17.196000000000002                  31.526                       0
   272   5      20.062000000000001                  31.526                       0
   273   4      22.928000000000001                  31.526                       0
   274   3                  25.794                  31.526                       0
   275   2                   28.66                  31.526                       0
   276   1                  31.526                  31.526                       0
   277   3      34.392000000000003                  31.526                       0
   278   2      37.258000000000003                  31.526                       0
   279   1      40.124000000000002                  31.526                       0
   280   5      42.990000000000002                  31.526                       0
   281   3      45.856000000000002                  31.526                       0
   282   1      48.722000000000001                  31.526                       0
   283   5      51.588000000000001                  31.526                       0
   284   1      54.454000000000001                  31.526                       0
   285   4                   57.32                  31.526                       0
   286   4                  60.186                  31.526                       0
   287   2                  63.052                  31.526                       0
   288   4      65.918000000000006                  31.526                       0
   289   4                       0      34.392000000000003                       0
   290   2      2.8660000000000001      34.392000000000003                       0
   291   3      5.7320000000000002      34.392000000000003                       0
   292   3      8.5980000000000008      34.392000000000003                       0
   293   4                  11.464      34.392000000000003                       0
   294   2                   14.33      34.392000000000003                       0
   295   3      17.196000000000002      34.392000000000003                       0
   296   4      20.062000000000001      34.392000000000003                       0
   297   5      22.928000000000001      34.392000000000003                       0
   298   2                  25.794      34.392000000000003                       0
   299   4                   28.66      34.392000000000003                       0
   300   3                  31.526      34.392000000000003                       0
   301   1      34.392000000000003      34.392000000000003                       0
   302   2      37.258000000000003      34.392000000000003                       0
   303   1      40.124000000000002      34.392000000000003                       0
   304   1      42.990000000000002      34.392000000000003                       0
   305   4      45.856000000000002      34.392000000000003                       0
   306   3      48.722000000000001      34.392000000000003                       0
   307   2      51.588000000000001      34.392000000000003                       0
   308   2      54.454000000000001      34.392000000000003                       0
   309   1                   57.32      34.392000000000003                       0
   310   2                  60.186      34.392000000000003                       0
   311   2                  63.052      34.392000000000003                       0
   312   1      65.918000000000006      34.392000000000003                       0
   313   5                       0      37.258000000000003                       0
   314   3      2.8660000000000001      37.258000000000003                       0
   315   4      5.7320000000000002      37.258000000000003                       0
   316   3      8.5980000000000008      37.258000000000003                       0
   317   2                  11.464      37.258000000000003                       0
   318   5                   14.33      37.258000000000003                       0
   319   4      17.196000000000002      37.258000000000003                       0
   320   3      20.062000000000001      37.258000000000003                       0
   321   1      22.928000000000001      37.258000000000003                       0
   322   3                  25.794      37.258000000000003                       0
   323   2                   28.66      37.258000000000003                       0
   324   1                  31.526      37.258000000000003                       0
   325   1      34.392000000000003      37.258000000000003                       0
   326   4      37.258000000000003      37.258000000000003                       0
   327   4      40.124000000000002      37.258000000000003                       0
   328   1      42.990000000000002      37.258000000000003                       0
   329   3      45.856000000000002      37.258000000000003                       0
   330   3      48.722000000000001      37.258000000000003                       0
   331   2      51.588000000000001      37.258000000000003                       0
   332   5      54.454000000000001      37.258000000000003                       0
   333   4                   57.32      37.258000000000003                       0
   334   3                  60.186      37.258000000000003                       0
   335   1                  63.052      37.258000000000003                       0
   336   4      65.918000000000006      37.258000000000003                       0
   337   4                       0      40.124000000000002                       0
   338   5      2.8660000000000001      40.124000000000002                       0
   339   4      5.7320000000000002      40.124000000000002                       0
   340   2      8.5980000000000008      40.124000000000002                       0
   341   4                  11.464      40.124000000000002                       0
   342   1                   14.33      40.124000000000002                       0
   343   4      17.196000000000002      40.124000000000002                       0
   344   1      20.062000000000001      40.124000000000002                       0
   345   1      22.928000000000001      40.124000000000002                       0
   346   2                  25.794      40.124000000000002                       0
   347   4                   28.66      40.124000000000002                       0
   348   3                  31.526      40.124000000000002                       0
   349   1      34.392000000000003      40.124000000000002                       0
   350   2      37.258000000000003      40.124000000000002                       0
   351   3      40.124000000000002      40.124000000000002                       0
   352   5      42.990000000000002      40.124000000000002                       0
   353   1      45.856000000000002      40.124000000000002                       0
   354   2      48.722000000000001      40.124000000000002                       0
   355   3      51.588000000000001      40.124000000000002                       0
   356   3      54.454000000000001      40.124000000000002                       0
   357   5                   57.32      40.124000000000002                       0
   358   3                  60.186      40.124000000000002                       0