/home/sez26/TIGP-IIP/LargeHEA/HEA_II.lmp (written by ASE) 

27648 	 atoms 
5  atom types
0.0      68.784000000000006  xlo xhi
0.0      68.784000000000006  ylo yhi
0.0      68.784000000000006  zlo zhi


Atoms 

     1   1                       0                       0                       0
     2   2      2.8660000000000001                       0                       0
     3   1      5.7320000000000002                       0                       0
     4   1      8.5980000000000008                       0                       0
     5   2                  11.464                       0                       0
     6   2                   14.33                       0                       0
     7   1      17.196000000000002                       0                       0
     8   1      20.062000000000001                       0                       0
     9   1      22.928000000000001                       0                       0
    10   2                  25.794                       0                       0
    11   2                   28.66                       0                       0
    12   1                  31.526                       0                       0
    13   2      34.392000000000003                       0                       0
    14   1      37.258000000000003                       0                       0
    15   2      40.124000000000002                       0                       0
    16   2      42.990000000000002                       0                       0
    17   2      45.856000000000002                       0                       0
    18   1      48.722000000000001                       0                       0
    19   2      51.588000000000001                       0                       0
    20   1      54.454000000000001                       0                       0
    21   1                   57.32                       0                       0
    22   2                  60.186                       0                       0
    23   2                  63.052                       0                       0
    24   2      65.918000000000006                       0                       0
    25   2                       0      2.8660000000000001                       0
    26   1      2.8660000000000001      2.8660000000000001                       0
    27   1      5.7320000000000002      2.8660000000000001                       0
    28   2      8.5980000000000008      2.8660000000000001                       0
    29   1                  11.464      2.8660000000000001                       0
    30   1                   14.33      2.8660000000000001                       0
    31   2      17.196000000000002      2.8660000000000001                       0
    32   2      20.062000000000001      2.8660000000000001                       0
    33   2      22.928000000000001      2.8660000000000001                       0
    34   2                  25.794      2.8660000000000001                       0
    35   2                   28.66      2.8660000000000001                       0
    36   2                  31.526      2.8660000000000001                       0
    37   1      34.392000000000003      2.8660000000000001                       0
    38   1      37.258000000000003      2.8660000000000001                       0
    39   1      40.124000000000002      2.8660000000000001                       0
    40   1      42.990000000000002      2.8660000000000001                       0
    41   2      45.856000000000002      2.8660000000000001                       0
    42   2      48.722000000000001      2.8660000000000001                       0
    43   2      51.588000000000001      2.8660000000000001                       0
    44   1      54.454000000000001      2.8660000000000001                       0
    45   1                   57.32      2.8660000000000001                       0
    46   1                  60.186      2.8660000000000001                       0
    47   2                  63.052      2.8660000000000001                       0
    48   2      65.918000000000006      2.8660000000000001                       0
    49   1                       0      5.7320000000000002                       0
    50   2      2.8660000000000001      5.7320000000000002                       0
    51   1      5.7320000000000002      5.7320000000000002                       0
    52   1      8.5980000000000008      5.7320000000000002                       0
    53   1                  11.464      5.7320000000000002                       0
    54   2                   14.33      5.7320000000000002                       0
    55   1      17.196000000000002      5.7320000000000002                       0
    56   2      20.062000000000001      5.7320000000000002                       0
    57   1      22.928000000000001      5.7320000000000002                       0
    58   1                  25.794      5.7320000000000002                       0
    59   2                   28.66      5.7320000000000002                       0
    60   1                  31.526      5.7320000000000002                       0
    61   2      34.392000000000003      5.7320000000000002                       0
    62   2      37.258000000000003      5.7320000000000002                       0
    63   2      40.124000000000002      5.7320000000000002                       0
    64   2      42.990000000000002      5.7320000000000002                       0
    65   2      45.856000000000002      5.7320000000000002                       0
    66   1      48.722000000000001      5.7320000000000002                       0
    67   2      51.588000000000001      5.7320000000000002                       0
    68   2      54.454000000000001      5.7320000000000002                       0
    69   2                   57.32      5.7320000000000002                       0
    70   1                  60.186      5.7320000000000002                       0
    71   2                  63.052      5.7320000000000002                       0
    72   1      65.918000000000006      5.7320000000000002                       0
    73   2                       0      8.5980000000000008                       0
    74   2      2.8660000000000001      8.5980000000000008                       0
    75   2      5.7320000000000002      8.5980000000000008                       0
    76   2      8.5980000000000008      8.5980000000000008                       0
    77   1                  11.464      8.5980000000000008                       0
    78   2                   14.33      8.5980000000000008                       0
    79   1      17.196000000000002      8.5980000000000008                       0
    80   2      20.062000000000001      8.5980000000000008                       0
    81   1      22.928000000000001      8.5980000000000008                       0
    82   1                  25.794      8.5980000000000008                       0
    83   1                   28.66      8.5980000000000008                       0
    84   2                  31.526      8.5980000000000008                       0
    85   1      34.392000000000003      8.5980000000000008                       0
    86   1      37.258000000000003      8.5980000000000008                       0
    87   2      40.124000000000002      8.5980000000000008                       0
    88   2      42.990000000000002      8.5980000000000008                       0
    89   1      45.856000000000002      8.5980000000000008                       0
    90   1      48.722000000000001      8.5980000000000008                       0
    91   1      51.588000000000001      8.5980000000000008                       0
    92   2      54.454000000000001      8.5980000000000008                       0
    93   2                   57.32      8.5980000000000008                       0
    94   1                  60.186      8.5980000000000008                       0
    95   1                  63.052      8.5980000000000008                       0
    96   2      65.918000000000006      8.5980000000000008                       0
    97   2                       0                  11.464                       0
    98   2      2.8660000000000001                  11.464                       0
    99   1      5.7320000000000002                  11.464                       0
   100   1      8.5980000000000008                  11.464                       0
   101   1                  11.464                  11.464                       0
   102   1                   14.33                  11.464                       0
   103   2      17.196000000000002                  11.464                       0
   104   2      20.062000000000001                  11.464                       0
   105   1      22.928000000000001                  11.464                       0
   106   2                  25.794                  11.464                       0
   107   2                   28.66                  11.464                       0
   108   2                  31.526                  11.464                       0
   109   2      34.392000000000003                  11.464                       0
   110   2      37.258000000000003                  11.464                       0
   111   1      40.124000000000002                  11.464                       0
   112   1      42.990000000000002                  11.464                       0
   113   2      45.856000000000002                  11.464                       0
   114   2      48.722000000000001                  11.464                       0
   115   2      51.588000000000001                  11.464                       0
   116   2      54.454000000000001                  11.464                       0
   117   2                   57.32                  11.464                       0
   118   1                  60.186                  11.464                       0
   119   2                  63.052                  11.464                       0
   120   2      65.918000000000006                  11.464                       0
   121   1                       0                   14.33                       0
   122   1      2.8660000000000001                   14.33                       0
   123   2      5.7320000000000002                   14.33                       0
   124   2      8.5980000000000008                   14.33                       0
   125   1                  11.464                   14.33                       0
   126   1                   14.33                   14.33                       0
   127   2      17.196000000000002                   14.33                       0
   128   1      20.062000000000001                   14.33                       0
   129   2      22.928000000000001                   14.33                       0
   130   2                  25.794                   14.33                       0
   131   1                   28.66                   14.33                       0
   132   2                  31.526                   14.33                       0
   133   2      34.392000000000003                   14.33                       0
   134   1      37.258000000000003                   14.33                       0
   135   2      40.124000000000002                   14.33                       0
   136   1      42.990000000000002                   14.33                       0
   137   1      45.856000000000002                   14.33                       0
   138   1      48.722000000000001                   14.33                       0
   139   2      51.588000000000001                   14.33                       0
   140   2      54.454000000000001                   14.33                       0
   141   2                   57.32                   14.33                       0
   142   1                  60.186                   14.33                       0
   143   2                  63.052                   14.33                       0
   144   2      65.918000000000006                   14.33                       0
   145   2                       0      17.196000000000002                       0
   146   2      2.8660000000000001      17.196000000000002                       0
   147   2      5.7320000000000002      17.196000000000002                       0
   148   1      8.5980000000000008      17.196000000000002                       0
   149   1                  11.464      17.196000000000002                       0
   150   1                   14.33      17.196000000000002                       0
   151   1      17.196000000000002      17.196000000000002                       0
   152   1      20.062000000000001      17.196000000000002                       0
   153   1      22.928000000000001      17.196000000000002                       0
   154   2                  25.794      17.196000000000002                       0
   155   1                   28.66      17.196000000000002                       0
   156   2                  31.526      17.196000000000002                       0
   157   1      34.392000000000003      17.196000000000002                       0
   158   1      37.258000000000003      17.196000000000002                       0
   159   1      40.124000000000002      17.196000000000002                       0
   160   2      42.990000000000002      17.196000000000002                       0
   161   1      45.856000000000002      17.196000000000002                       0
   162   2      48.722000000000001      17.196000000000002                       0
   163   1      51.588000000000001      17.196000000000002                       0
   164   1      54.454000000000001      17.196000000000002                       0
   165   2                   57.32      17.196000000000002                       0
   166   2                  60.186      17.196000000000002                       0
   167   2                  63.052      17.196000000000002                       0
   168   1      65.918000000000006      17.196000000000002                       0
   169   1                       0      20.062000000000001                       0
   170   1      2.8660000000000001      20.062000000000001                       0
   171   2      5.7320000000000002      20.062000000000001                       0
   172   2      8.5980000000000008      20.062000000000001                       0
   173   1                  11.464      20.062000000000001                       0
   174   2                   14.33      20.062000000000001                       0
   175   2      17.196000000000002      20.062000000000001                       0
   176   1      20.062000000000001      20.062000000000001                       0
   177   2      22.928000000000001      20.062000000000001                       0
   178   2                  25.794      20.062000000000001                       0
   179   1                   28.66      20.062000000000001                       0
   180   1                  31.526      20.062000000000001                       0
   181   1      34.392000000000003      20.062000000000001                       0
   182   1      37.258000000000003      20.062000000000001                       0
   183   2      40.124000000000002      20.062000000000001                       0
   184   1      42.990000000000002      20.062000000000001                       0
   185   2      45.856000000000002      20.062000000000001                       0
   186   2      48.722000000000001      20.062000000000001                       0
   187   2      51.588000000000001      20.062000000000001                       0
   188   2      54.454000000000001      20.062000000000001                       0
   189   2                   57.32      20.062000000000001                       0
   190   2                  60.186      20.062000000000001                       0
   191   1                  63.052      20.062000000000001                       0
   192   1      65.918000000000006      20.062000000000001                       0
   193   2                       0      22.928000000000001                       0
   194   2      2.8660000000000001      22.928000000000001                       0
   195   1      5.7320000000000002      22.928000000000001                       0
   196   2      8.5980000000000008      22.928000000000001                       0
   197   2                  11.464      22.928000000000001                       0
   198   2                   14.33      22.928000000000001                       0
   199   1      17.196000000000002      22.928000000000001                       0
   200   2      20.062000000000001      22.928000000000001                       0
   201   2      22.928000000000001      22.928000000000001                       0
   202   1                  25.794      22.928000000000001                       0
   203   1                   28.66      22.928000000000001                       0
   204   1                  31.526      22.928000000000001                       0
   205   1      34.392000000000003      22.928000000000001                       0
   206   1      37.258000000000003      22.928000000000001                       0
   207   2      40.124000000000002      22.928000000000001                       0
   208   1      42.990000000000002      22.928000000000001                       0
   209   2      45.856000000000002      22.928000000000001                       0
   210   1      48.722000000000001      22.928000000000001                       0
   211   1      51.588000000000001      22.928000000000001                       0
   212   2      54.454000000000001      22.928000000000001                       0
   213   2                   57.32      22.928000000000001                       0
   214   2                  60.186      22.928000000000001                       0
   215   2                  63.052      22.928000000000001                       0
   216   1      65.918000000000006      22.928000000000001                       0
   217   2                       0                  25.794                       0
   218   2      2.8660000000000001                  25.794                       0
   219   2      5.7320000000000002                  25.794                       0
   220   1      8.5980000000000008                  25.794                       0
   221   1                  11.464                  25.794                       0
   222   1                   14.33                  25.794                       0
   223   2      17.196000000000002                  25.794                       0
   224   2      20.062000000000001                  25.794                       0
   225   1      22.928000000000001                  25.794                       0
   226   1                  25.794                  25.794                       0
   227   1                   28.66                  25.794                       0
   228   1                  31.526                  25.794                       0
   229   2      34.392000000000003                  25.794                       0
   230   1      37.258000000000003                  25.794                       0
   231   1      40.124000000000002                  25.794                       0
   232   2      42.990000000000002                  25.794                       0
   233   1      45.856000000000002                  25.794                       0
   234   2      48.722000000000001                  25.794                       0
   235   2      51.588000000000001                  25.794                       0
   236   1      54.454000000000001                  25.794                       0
   237   2                   57.32                  25.794                       0
   238   2                  60.186                  25.794                       0
   239   2                  63.052                  25.794                       0
   240   1      65.918000000000006                  25.794                       0
   241   1                       0                   28.66                       0
   242   1      2.8660000000000001                   28.66                       0
   243   2      5.7320000000000002                   28.66                       0
   244   2      8.5980000000000008                   28.66                       0
   245   2                  11.464                   28.66                       0
   246   2                   14.33                   28.66                       0
   247   1      17.196000000000002                   28.66                       0
   248   2      20.062000000000001                   28.66                       0
   249   2      22.928000000000001                   28.66                       0
   250   2                  25.794                   28.66                       0
   251   1                   28.66                   28.66                       0
   252   1                  31.526                   28.66                       0
   253   1      34.392000000000003                   28.66                       0
   254   2      37.258000000000003                   28.66                       0
   255   1      40.124000000000002                   28.66                       0
   256   1      42.990000000000002                   28.66                       0
   257   1      45.856000000000002                   28.66                       0
   258   2      48.722000000000001                   28.66                       0
   259   1      51.588000000000001                   28.66                       0
   260   2      54.454000000000001                   28.66                       0
   261   1                   57.32                   28.66                       0
   262   2                  60.186                   28.66                       0
   263   2                  63.052                   28.66                       0
   264   1      65.918000000000006                   28.66                       0
   265   1                       0                  31.526                       0
   266   2      2.8660000000000001                  31.526                       0
   267   2      5.7320000000000002                  31.526                       0
   268   1      8.5980000000000008                  31.526                       0
   269   2                  11.464                  31.526                       0
   270   1                   14.33                  31.526                       0
   271   2      17.196000000000002                  31.526                       0
   272   1      20.062000000000001                  31.526                       0
   273   1      22.928000000000001                  31.526                       0
   274   2                  25.794                  31.526                       0
   275   1                   28.66                  31.526                       0
   276   1                  31.526                  31.526                       0
   277   1      34.392000000000003                  31.526                       0
   278   1      37.258000000000003                  31.526                       0
   279   1      40.124000000000002                  31.526                       0
   280   1      42.990000000000002                  31.526                       0
   281   1      45.856000000000002                  31.526                       0
   282   2      48.722000000000001                  31.526                       0
   283   2      51.588000000000001                  31.526                       0
   284   1      54.454000000000001                  31.526                       0
   285   1                   57.32                  31.526                       0
   286   1                  60.186                  31.526                       0
   287   2                  63.052                  31.526                       0
   288   1      65.918000000000006                  31.526                       0
   289   1                       0      34.392000000000003                       0
   290   1      2.8660000000000001      34.392000000000003                       0
   291   2      5.7320000000000002      34.392000000000003                       0
   292   1      8.5980000000000008      34.392000000000003                       0
   293   1                  11.464      34.392000000000003                       0
   294   1                   14.33      34.392000000000003                       0
   295   1      17.196000000000002      34.392000000000003                       0
   296   1      20.062000000000001      34.392000000000003                       0
   297   2      22.928000000000001      34.392000000000003                       0
   298   2                  25.794      34.392000000000003                       0
   299   2                   28.66      34.392000000000003                       0
   300   2                  31.526      34.392000000000003                       0
   301   1      34.392000000000003      34.392000000000003                       0
   302   1      37.258000000000003      34.392000000000003                       0
   303   2      40.124000000000002      34.392000000000003                       0
   304   2      42.990000000000002      34.392000000000003                       0
   305   2      45.856000000000002      34.392000000000003                       0
   306   2      48.722000000000001      34.392000000000003                       0
   307   2      51.588000000000001      34.392000000000003                       0
   308   1      54.454000000000001      34.392000000000003                       0
   309   1                   57.32      34.392000000000003                       0
   310   1                  60.186      34.392000000000003                       0
   311   2                  63.052      34.392000000000003                       0
   312   2      65.918000000000006      34.392000000000003                       0
   313   2                       0      37.258000000000003                       0
   314   1      2.8660000000000001      37.258000000000003                       0
   315   2      5.7320000000000002      37.258000000000003                       0
   316   1      8.5980000000000008      37.258000000000003                       0
   317   2                  11.464      37.258000000000003                       0
   318   1                   14.33      37.258000000000003                       0
   319   1      17.196000000000002      37.258000000000003                       0
   320   1      20.062000000000001      37.258000000000003                       0
   321   1      22.928000000000001      37.258000000000003                       0
   322   1                  25.794      37.258000000000003                       0
   323   1                   28.66      37.258000000000003                       0
   324   1                  31.526      37.258000000000003                       0
   325   2      34.392000000000003      37.258000000000003                       0
   326   2      37.258000000000003      37.258000000000003                       0
   327   1      40.124000000000002      37.258000000000003                       0
   328   1      42.990000000000002      37.258000000000003                       0
   329   1      45.856000000000002      37.258000000000003                       0
   330   2      48.722000000000001      37.258000000000003                       0
   331   1      51.588000000000001      37.258000000000003                       0
   332   1      54.454000000000001      37.258000000000003                       0
   333   1                   57.32      37.258000000000003                       0
   334   2                  60.186      37.258000000000003                       0
   335   1                  63.052      37.258000000000003                       0
   336   1      65.918000000000006      37.258000000000003                       0
   337   1                       0      40.124000000000002                       0
   338   1      2.8660000000000001      40.124000000000002                       0
   339   2      5.7320000000000002      40.124000000000002                       0
   340   1      8.5980000000000008      40.124000000000002                       0
   341   1                  11.464      40.124000000000002                       0
   342   1                   14.33      40.124000000000002                       0
   343   2      17.196000000000002      40.124000000000002                       0
   344   2      20.062000000000001      40.124000000000002                       0
   345   1      22.928000000000001      40.124000000000002                       0
   346   1                  25.794      40.124000000000002                       0
   347   2                   28.66      40.124000000000002                       0
   348   2                  31.526      40.124000000000002                       0
   349   1      34.392000000000003      40.124000000000002                       0
   350   2      37.258000000000003      40.124000000000002                       0
   351   1      40.124000000000002      40.124000000000002                       0
   352   1      42.990000000000002      40.124000000000002                       0
   353   2      45.856000000000002      40.124000000000002                       0
   354   1      48.722000000000001      40.124000000000002                       0
   355   1      51.588000000000001      40.124000000000002                       0
   356   1      54.454000000000001      40.124000000000002                       0
   357   2                   57.32      40.124000000000002                       0
   358   1                  60.186      40.124000000000002                       0