/home/sez26/TIGP-IIP/LargeHEA/HEA_I.lmp (written by ASE) 

11664 	 atoms 
5  atom types
0.0      56.304000000000002  xlo xhi
0.0      56.304000000000002  ylo yhi
0.0      56.304000000000002  zlo zhi


Atoms 

     1   4                       0                       0                       0
     2   5      3.1280000000000001                       0                       0
     3   2      6.2560000000000002                       0                       0
     4   4      9.3840000000000003                       0                       0
     5   1                  12.512                       0                       0
     6   3      15.640000000000001                       0                       0
     7   4      18.768000000000001                       0                       0
     8   5      21.896000000000001                       0                       0
     9   2      25.024000000000001                       0                       0
    10   2      28.152000000000001                       0                       0
    11   1      31.280000000000001                       0                       0
    12   5      34.408000000000001                       0                       0
    13   2      37.536000000000001                       0                       0
    14   2      40.664000000000001                       0                       0
    15   4      43.792000000000002                       0                       0
    16   1      46.920000000000002                       0                       0
    17   5      50.048000000000002                       0                       0
    18   4      53.176000000000002                       0                       0
    19   2                       0      3.1280000000000001                       0
    20   5      3.1280000000000001      3.1280000000000001                       0
    21   1      6.2560000000000002      3.1280000000000001                       0
    22   2      9.3840000000000003      3.1280000000000001                       0
    23   5                  12.512      3.1280000000000001                       0
    24   5      15.640000000000001      3.1280000000000001                       0
    25   3      18.768000000000001      3.1280000000000001                       0
    26   2      21.896000000000001      3.1280000000000001                       0
    27   1      25.024000000000001      3.1280000000000001                       0
    28   4      28.152000000000001      3.1280000000000001                       0
    29   1      31.280000000000001      3.1280000000000001                       0
    30   1      34.408000000000001      3.1280000000000001                       0
    31   5      37.536000000000001      3.1280000000000001                       0
    32   2      40.664000000000001      3.1280000000000001                       0
    33   1      43.792000000000002      3.1280000000000001                       0
    34   1      46.920000000000002      3.1280000000000001                       0
    35   5      50.048000000000002      3.1280000000000001                       0
    36   5      53.176000000000002      3.1280000000000001                       0
    37   4                       0      6.2560000000000002                       0
    38   5      3.1280000000000001      6.2560000000000002                       0
    39   1      6.2560000000000002      6.2560000000000002                       0
    40   1      9.3840000000000003      6.2560000000000002                       0
    41   2                  12.512      6.2560000000000002                       0
    42   4      15.640000000000001      6.2560000000000002                       0
    43   4      18.768000000000001      6.2560000000000002                       0
    44   1      21.896000000000001      6.2560000000000002                       0
    45   1      25.024000000000001      6.2560000000000002                       0
    46   4      28.152000000000001      6.2560000000000002                       0
    47   1      31.280000000000001      6.2560000000000002                       0
    48   4      34.408000000000001      6.2560000000000002                       0
    49   5      37.536000000000001      6.2560000000000002                       0
    50   1      40.664000000000001      6.2560000000000002                       0
    51   5      43.792000000000002      6.2560000000000002                       0
    52   4      46.920000000000002      6.2560000000000002                       0
    53   4      50.048000000000002      6.2560000000000002                       0
    54   3      53.176000000000002      6.2560000000000002                       0
    55   1                       0      9.3840000000000003                       0
    56   2      3.1280000000000001      9.3840000000000003                       0
    57   5      6.2560000000000002      9.3840000000000003                       0
    58   1      9.3840000000000003      9.3840000000000003                       0
    59   2                  12.512      9.3840000000000003                       0
    60   2      15.640000000000001      9.3840000000000003                       0
    61   1      18.768000000000001      9.3840000000000003                       0
    62   3      21.896000000000001      9.3840000000000003                       0
    63   3      25.024000000000001      9.3840000000000003                       0
    64   3      28.152000000000001      9.3840000000000003                       0
    65   1      31.280000000000001      9.3840000000000003                       0
    66   1      34.408000000000001      9.3840000000000003                       0
    67   1      37.536000000000001      9.3840000000000003                       0
    68   4      40.664000000000001      9.3840000000000003                       0
    69   3      43.792000000000002      9.3840000000000003                       0
    70   2      46.920000000000002      9.3840000000000003                       0
    71   3      50.048000000000002      9.3840000000000003                       0
    72   1      53.176000000000002      9.3840000000000003                       0
    73   1                       0                  12.512                       0
    74   1      3.1280000000000001                  12.512                       0
    75   2      6.2560000000000002                  12.512                       0
    76   1      9.3840000000000003                  12.512                       0
    77   4                  12.512                  12.512                       0
    78   5      15.640000000000001                  12.512                       0
    79   3      18.768000000000001                  12.512                       0
    80   5      21.896000000000001                  12.512                       0
    81   1      25.024000000000001                  12.512                       0
    82   5      28.152000000000001                  12.512                       0
    83   4      31.280000000000001                  12.512                       0
    84   4      34.408000000000001                  12.512                       0
    85   4      37.536000000000001                  12.512                       0
    86   1      40.664000000000001                  12.512                       0
    87   3      43.792000000000002                  12.512                       0
    88   2      46.920000000000002                  12.512                       0
    89   4      50.048000000000002                  12.512                       0
    90   1      53.176000000000002                  12.512                       0
    91   2                       0      15.640000000000001                       0
    92   2      3.1280000000000001      15.640000000000001                       0
    93   1      6.2560000000000002      15.640000000000001                       0
    94   5      9.3840000000000003      15.640000000000001                       0
    95   3                  12.512      15.640000000000001                       0
    96   3      15.640000000000001      15.640000000000001                       0
    97   1      18.768000000000001      15.640000000000001                       0
    98   5      21.896000000000001      15.640000000000001                       0
    99   2      25.024000000000001      15.640000000000001                       0
   100   1      28.152000000000001      15.640000000000001                       0
   101   4      31.280000000000001      15.640000000000001                       0
   102   1      34.408000000000001      15.640000000000001                       0
   103   3      37.536000000000001      15.640000000000001                       0
   104   5      40.664000000000001      15.640000000000001                       0
   105   4      43.792000000000002      15.640000000000001                       0
   106   5      46.920000000000002      15.640000000000001                       0
   107   2      50.048000000000002      15.640000000000001                       0
   108   1      53.176000000000002      15.640000000000001                       0
   109   4                       0      18.768000000000001                       0
   110   2      3.1280000000000001      18.768000000000001                       0
   111   2      6.2560000000000002      18.768000000000001                       0
   112   4      9.3840000000000003      18.768000000000001                       0
   113   3                  12.512      18.768000000000001                       0
   114   1      15.640000000000001      18.768000000000001                       0
   115   4      18.768000000000001      18.768000000000001                       0
   116   1      21.896000000000001      18.768000000000001                       0
   117   2      25.024000000000001      18.768000000000001                       0
   118   3      28.152000000000001      18.768000000000001                       0
   119   4      31.280000000000001      18.768000000000001                       0
   120   2      34.408000000000001      18.768000000000001                       0
   121   4      37.536000000000001      18.768000000000001                       0
   122   1      40.664000000000001      18.768000000000001                       0
   123   4      43.792000000000002      18.768000000000001                       0
   124   3      46.920000000000002      18.768000000000001                       0
   125   3      50.048000000000002      18.768000000000001                       0
   126   2      53.176000000000002      18.768000000000001                       0
   127   5                       0      21.896000000000001                       0
   128   3      3.1280000000000001      21.896000000000001                       0
   129   1      6.2560000000000002      21.896000000000001                       0
   130   5      9.3840000000000003      21.896000000000001                       0
   131   3                  12.512      21.896000000000001                       0
   132   2      15.640000000000001      21.896000000000001                       0
   133   2      18.768000000000001      21.896000000000001                       0
   134   2      21.896000000000001      21.896000000000001                       0
   135   2      25.024000000000001      21.896000000000001                       0
   136   2      28.152000000000001      21.896000000000001                       0
   137   1      31.280000000000001      21.896000000000001                       0
   138   1      34.408000000000001      21.896000000000001                       0
   139   1      37.536000000000001      21.896000000000001                       0
   140   2      40.664000000000001      21.896000000000001                       0
   141   1      43.792000000000002      21.896000000000001                       0
   142   5      46.920000000000002      21.896000000000001                       0
   143   4      50.048000000000002      21.896000000000001                       0
   144   1      53.176000000000002      21.896000000000001                       0
   145   3                       0      25.024000000000001                       0
   146   4      3.1280000000000001      25.024000000000001                       0
   147   1      6.2560000000000002      25.024000000000001                       0
   148   4      9.3840000000000003      25.024000000000001                       0
   149   1                  12.512      25.024000000000001                       0
   150   5      15.640000000000001      25.024000000000001                       0
   151   3      18.768000000000001      25.024000000000001                       0
   152   2      21.896000000000001      25.024000000000001                       0
   153   1      25.024000000000001      25.024000000000001                       0
   154   1      28.152000000000001      25.024000000000001                       0
   155   4      31.280000000000001      25.024000000000001                       0
   156   2      34.408000000000001      25.024000000000001                       0
   157   1      37.536000000000001      25.024000000000001                       0
   158   2      40.664000000000001      25.024000000000001                       0
   159   4      43.792000000000002      25.024000000000001                       0
   160   5      46.920000000000002      25.024000000000001                       0
   161   2      50.048000000000002      25.024000000000001                       0
   162   2      53.176000000000002      25.024000000000001                       0
   163   2                       0      28.152000000000001                       0
   164   2      3.1280000000000001      28.152000000000001                       0
   165   1      6.2560000000000002      28.152000000000001                       0
   166   4      9.3840000000000003      28.152000000000001                       0
   167   3                  12.512      28.152000000000001                       0
   168   4      15.640000000000001      28.152000000000001                       0
   169   1      18.768000000000001      28.152000000000001                       0
   170   2      21.896000000000001      28.152000000000001                       0
   171   4      25.024000000000001      28.152000000000001                       0
   172   5      28.152000000000001      28.152000000000001                       0
   173   2      31.280000000000001      28.152000000000001                       0
   174   5      34.408000000000001      28.152000000000001                       0
   175   3      37.536000000000001      28.152000000000001                       0
   176   4      40.664000000000001      28.152000000000001                       0
   177   2      43.792000000000002      28.152000000000001                       0
   178   2      46.920000000000002      28.152000000000001                       0
   179   2      50.048000000000002      28.152000000000001                       0
   180   3      53.176000000000002      28.152000000000001                       0
   181   2                       0      31.280000000000001                       0
   182   4      3.1280000000000001      31.280000000000001                       0
   183   2      6.2560000000000002      31.280000000000001                       0
   184   3      9.3840000000000003      31.280000000000001                       0
   185   3                  12.512      31.280000000000001                       0
   186   1      15.640000000000001      31.280000000000001                       0
   187   1      18.768000000000001      31.280000000000001                       0
   188   2      21.896000000000001      31.280000000000001                       0
   189   1      25.024000000000001      31.280000000000001                       0
   190   1      28.152000000000001      31.280000000000001                       0
   191   1      31.280000000000001      31.280000000000001                       0
   192   3      34.408000000000001      31.280000000000001                       0
   193   2      37.536000000000001      31.280000000000001                       0
   194   2      40.664000000000001      31.280000000000001                       0
   195   4      43.792000000000002      31.280000000000001                       0
   196   2      46.920000000000002      31.280000000000001                       0
   197   4      50.048000000000002      31.280000000000001                       0
   198   5      53.176000000000002      31.280000000000001                       0
   199   3                       0      34.408000000000001                       0
   200   2      3.1280000000000001      34.408000000000001                       0
   201   2      6.2560000000000002      34.408000000000001                       0
   202   4      9.3840000000000003      34.408000000000001                       0
   203   5                  12.512      34.408000000000001                       0
   204   1      15.640000000000001      34.408000000000001                       0
   205   2      18.768000000000001      34.408000000000001                       0
   206   3      21.896000000000001      34.408000000000001                       0
   207   1      25.024000000000001      34.408000000000001                       0
   208   4      28.152000000000001      34.408000000000001                       0
   209   4      31.280000000000001      34.408000000000001                       0
   210   5      34.408000000000001      34.408000000000001                       0
   211   5      37.536000000000001      34.408000000000001                       0
   212   2      40.664000000000001      34.408000000000001                       0
   213   2      43.792000000000002      34.408000000000001                       0
   214   2      46.920000000000002      34.408000000000001                       0
   215   5      50.048000000000002      34.408000000000001                       0
   216   1      53.176000000000002      34.408000000000001                       0
   217   3                       0      37.536000000000001                       0
   218   2      3.1280000000000001      37.536000000000001                       0
   219   4      6.2560000000000002      37.536000000000001                       0
   220   3      9.3840000000000003      37.536000000000001                       0
   221   5                  12.512      37.536000000000001                       0
   222   4      15.640000000000001      37.536000000000001                       0
   223   4      18.768000000000001      37.536000000000001                       0
   224   1      21.896000000000001      37.536000000000001                       0
   225   3      25.024000000000001      37.536000000000001                       0
   226   2      28.152000000000001      37.536000000000001                       0
   227   2      31.280000000000001      37.536000000000001                       0
   228   2      34.408000000000001      37.536000000000001                       0
   229   3      37.536000000000001      37.536000000000001                       0
   230   3      40.664000000000001      37.536000000000001                       0
   231   5      43.792000000000002      37.536000000000001                       0
   232   4      46.920000000000002      37.536000000000001                       0
   233   4      50.048000000000002      37.536000000000001                       0
   234   1      53.176000000000002      37.536000000000001                       0
   235   3                       0      40.664000000000001                       0
   236   5      3.1280000000000001      40.664000000000001                       0
   237   2      6.2560000000000002      40.664000000000001                       0
   238   4      9.3840000000000003      40.664000000000001                       0
   239   1                  12.512      40.664000000000001                       0
   240   1      15.640000000000001      40.664000000000001                       0
   241   2      18.768000000000001      40.664000000000001                       0
   242   1      21.896000000000001      40.664000000000001                       0
   243   1      25.024000000000001      40.664000000000001                       0
   244   5      28.152000000000001      40.664000000000001                       0
   245   2      31.280000000000001      40.664000000000001                       0
   246   1      34.408000000000001      40.664000000000001                       0
   247   1      37.536000000000001      40.664000000000001                       0
   248   5      40.664000000000001      40.664000000000001                       0
   249   1      43.792000000000002      40.664000000000001                       0
   250   5      46.920000000000002      40.664000000000001                       0
   251   4      50.048000000000002      40.664000000000001                       0
   252   4      53.176000000000002      40.664000000000001                       0
   253   2                       0      43.792000000000002                       0
   254   5      3.1280000000000001      43.792000000000002                       0
   255   3      6.2560000000000002      43.792000000000002                       0
   256   5      9.3840000000000003      43.792000000000002                       0
   257   3                  12.512      43.792000000000002                       0
   258   5      15.640000000000001      43.792000000000002                       0
   259   1      18.768000000000001      43.792000000000002                       0
   260   1      21.896000000000001      43.792000000000002                       0
   261   4      25.024000000000001      43.792000000000002                       0
   262   5      28.152000000000001      43.792000000000002                       0
   263   4      31.280000000000001      43.792000000000002                       0
   264   2      34.408000000000001      43.792000000000002                       0
   265   1      37.536000000000001      43.792000000000002                       0
   266   2      40.664000000000001      43.792000000000002                       0
   267   3      43.792000000000002      43.792000000000002                       0
   268   4      46.920000000000002      43.792000000000002                       0
   269   5      50.048000000000002      43.792000000000002                       0
   270   5      53.176000000000002      43.792000000000002                       0
   271   3                       0      46.920000000000002                       0
   272   2      3.1280000000000001      46.920000000000002                       0
   273   5      6.2560000000000002      46.920000000000002                       0
   274   2      9.3840000000000003      46.920000000000002                       0
   275   1                  12.512      46.920000000000002                       0
   276   4      15.640000000000001      46.920000000000002                       0
   277   1      18.768000000000001      46.920000000000002                       0
   278   2      21.896000000000001      46.920000000000002                       0
   279   2      25.024000000000001      46.920000000000002                       0
   280   3      28.152000000000001      46.920000000000002                       0
   281   1      31.280000000000001      46.920000000000002                       0
   282   1      34.408000000000001      46.920000000000002                       0
   283   4      37.536000000000001      46.920000000000002                       0
   284   2      40.664000000000001      46.920000000000002                       0
   285   5      43.792000000000002      46.920000000000002                       0
   286   2      46.920000000000002      46.920000000000002                       0
   287   2      50.048000000000002      46.920000000000002                       0
   288   2      53.176000000000002      46.920000000000002                       0
   289   1                       0      50.048000000000002                       0
   290   2      3.1280000000000001      50.048000000000002                       0
   291   2      6.2560000000000002      50.048000000000002                       0
   292   1      9.3840000000000003      50.048000000000002                       0
   293   1                  12.512      50.048000000000002                       0
   294   4      15.640000000000001      50.048000000000002                       0
   295   2      18.768000000000001      50.048000000000002                       0
   296   1      21.896000000000001      50.048000000000002                       0
   297   1      25.024000000000001      50.048000000000002                       0
   298   4      28.152000000000001      50.048000000000002                       0
   299   3      31.280000000000001      50.048000000000002                       0
   300   1      34.408000000000001      50.048000000000002                       0
   301   5      37.536000000000001      50.048000000000002                       0
   302   5      40.664000000000001      50.048000000000002                       0
   303   2      43.792000000000002      50.048000000000002                       0
   304   5      46.920000000000002      50.048000000000002                       0
   305   2      50.048000000000002      50.048000000000002                       0
   306   3      53.176000000000002      50.048000000000002                       0
   307   1                       0      53.176000000000002                       0
   308   2      3.1280000000000001      53.176000000000002                       0
   309   5      6.2560000000000002      53.176000000000002                       0
   310   1      9.3840000000000003      53.176000000000002                       0
   311   1                  12.512      53.176000000000002                       0
   312   3      15.640000000000001      53.176000000000002                       0
   313   1      18.768000000000001      53.176000000000002                       0
   314   1      21.896000000000001      53.176000000000002                       0
   315   5      25.024000000000001      53.176000000000002                       0
   316   3      28.152000000000001      53.176000000000002                       0
   317   5      31.280000000000001      53.176000000000002                       0
   318   1      34.408000000000001      53.176000000000002                       0
   319   2      37.536000000000001      53.176000000000002                       0
   320   2      40.664000000000001      53.176000000000002                       0
   321   4      43.792000000000002      53.176000000000002                       0
   322   3      46.920000000000002      53.176000000000002                       0
   323   3      50.048000000000002      53.176000000000002                       0
   324   3      53.176000000000002      53.176000000000002                       0
   325   5                       0                       0      3.1280000000000001
   326   1      3.1280000000000001                       0      3.1280000000000001
   327   1      6.2560000000000002                       0      3.1280000000000001
   328   1      9.3840000000000003                       0      3.1280000000000001
   329   2                  12.512                       0      3.1280000000000001
   330   5      15.640000000000001                       0      3.1280000000000001
   331   2      18.768000000000001                       0      3.1280000000000001
   332   2      21.896000000000001                       0      3.1280000000000001
   333   3      25.024000000000001                       0      3.1280000000000001
   334   5      28.152000000000001                       0      3.1280000000000001
   335   3      31.280000000000001                       0      3.1280000000000001
   336   4      34.408000000000001                       0      3.1280000000000001
   337   3      37.536000000000001                       0      3.1280000000000001
   338   1      40.664000000000001                       0      3.1280000000000001
   339   2      43.792000000000002                       0      3.1280000000000001
   340   5      46.920000000000002                       0      3.1280000000000001
   341   5      50.048000000000002                       0      3.1280000000000001
   342   1      53.176000000000002                       0      3.1280000000000001
   343   1                       0      3.1280000000000001      3.1280000000000001
   344   1      3.1280000000000001      3.1280000000000001      3.1280000000000001
   345   1      6.2560000000000002      3.1280000000000001      3.1280000000000001
   346   2      9.3840000000000003      3.1280000000000001      3.1280000000000001
   347   1                  12.512      3.1280000000000001      3.1280000000000001
   348   4      15.640000000000001      3.1280000000000001      3.1280000000000001
   349   2      18.768000000000001      3.1280000000000001      3.1280000000000001
   350   4      21.896000000000001      3.1280000000000001      3.1280000000000001
   351   4      25.024000000000001      3.1280000000000001      3.1280000000000001
   352   2      28.152000000000001      3.1280000000000001      3.1280000000000001
   353   1      31.280000000000001      3.1280000000000001      3.1280000000000001
   354   2      34.408000000000001      3.1280000000000001      3.1280000000000001
   355   5      37.536000000000001      3.1280000000000001      3.1280000000000001
   356   1      40.664000000000001      3.1280000000000001      3.1280000000000001
   357   4      43.792000000000002      3.1280000000000001      3.1280000000000001
   358   3      46.920000000000002      3.1280000000000001      3.1280000000000001