 # Bcc Fe oriented X=[111], Y=[1-10], Z=[11-2].
  
        4032  atoms
           1  atom types
 
      0.000000000000      59.818106690199  xlo xhi
      0.000000000000      28.490746427568  ylo yhi
      0.000000000000      28.198525918920  zlo zhi
 
Masses
 
            1   55.84500000             # Fe
 
Atoms # atomic
 
         1    1        0.000000000000       2.035053316255       3.524815739865
         2    1        1.661614074728       0.000000000000       4.699754319820
         3    1        0.000000000000       0.000000000000       0.000000000000
         4    1        1.661614074728       2.035053316255       1.174938579955
         5    1        0.830807037364       2.035053316255       5.874692899775
         6    1        0.830807037364       0.000000000000       2.349877159910
         7    1        2.492421112092       2.035053316255       3.524815739865
         8    1        4.154035186819       0.000000000000       4.699754319820
         9    1        2.492421112092       0.000000000000       0.000000000000
        10    1        4.154035186819       2.035053316255       1.174938579955
        11    1        3.323228149455       2.035053316255       5.874692899775
        12    1        3.323228149455       0.000000000000       2.349877159910
        13    1        4.984842224183       2.035053316255       3.524815739865
        14    1        6.646456298911       0.000000000000       4.699754319820
        15    1        4.984842224183       0.000000000000       0.000000000000
        16    1        6.646456298911       2.035053316255       1.174938579955
        17    1        5.815649261547       2.035053316255       5.874692899775
        18    1        5.815649261547       0.000000000000       2.349877159910
        19    1        7.477263336275       2.035053316255       3.524815739865
        20    1        9.138877411003       0.000000000000       4.699754319820
        21    1        7.477263336275       0.000000000000       0.000000000000
        22    1        9.138877411003       2.035053316255       1.174938579955
        23    1        8.308070373639       2.035053316255       5.874692899775
        24    1        8.308070373639       0.000000000000       2.349877159910
        25    1        9.969684448366       2.035053316255       3.524815739865
        26    1       11.631298523094       0.000000000000       4.699754319820
        27    1        9.969684448366       0.000000000000       0.000000000000
        28    1       11.631298523094       2.035053316255       1.174938579955
        29    1       10.800491485730       2.035053316255       5.874692899775
        30    1       10.800491485730       0.000000000000       2.349877159910
        31    1       12.462105560458       2.035053316255       3.524815739865
        32    1       14.123719635186       0.000000000000       4.699754319820
        33    1       12.462105560458       0.000000000000       0.000000000000
        34    1       14.123719635186       2.035053316255       1.174938579955
        35    1       13.292912597822       2.035053316255       5.874692899775
        36    1       13.292912597822       0.000000000000       2.349877159910
        37    1       14.954526672550       2.035053316255       3.524815739865
        38    1       16.616140747277       0.000000000000       4.699754319820
        39    1       14.954526672550       0.000000000000       0.000000000000
        40    1       16.616140747277       2.035053316255       1.174938579955
        41    1       15.785333709914       2.035053316255       5.874692899775
        42    1       15.785333709914       0.000000000000       2.349877159910
        43    1       17.446947784641       2.035053316255       3.524815739865
        44    1       19.108561859369       0.000000000000       4.699754319820
        45    1       17.446947784641       0.000000000000       0.000000000000
        46    1       19.108561859369       2.035053316255       1.174938579955
        47    1       18.277754822005       2.035053316255       5.874692899775
        48    1       18.277754822005       0.000000000000       2.349877159910
        49    1       19.939368896733       2.035053316255       3.524815739865
        50    1       21.600982971461       0.000000000000       4.699754319820
        51    1       19.939368896733       0.000000000000       0.000000000000
        52    1       21.600982971461       2.035053316255       1.174938579955
        53    1       20.770175934097       2.035053316255       5.874692899775
        54    1       20.770175934097       0.000000000000       2.349877159910
        55    1       22.431790008825       2.035053316255       3.524815739865
        56    1       24.093404083552       0.000000000000       4.699754319820
        57    1       22.431790008825       0.000000000000       0.000000000000
        58    1       24.093404083552       2.035053316255       1.174938579955
        59    1       23.262597046188       2.035053316255       5.874692899775
        60    1       23.262597046188       0.000000000000       2.349877159910
        61    1       24.924211120916       2.035053316255       3.524815739865
        62    1       26.585825195644       0.000000000000       4.699754319820
        63    1       24.924211120916       0.000000000000       0.000000000000
        64    1       26.585825195644       2.035053316255       1.174938579955
        65    1       25.755018158280       2.035053316255       5.874692899775
        66    1       25.755018158280       0.000000000000       2.349877159910
        67    1       27.416632233008       2.035053316255       3.524815739865
        68    1       29.078246307736       0.000000000000       4.699754319820
        69    1       27.416632233008       0.000000000000       0.000000000000
        70    1       29.078246307736       2.035053316255       1.174938579955
        71    1       28.247439270372       2.035053316255       5.874692899775
        72    1       28.247439270372       0.000000000000       2.349877159910
        73    1       29.909053345099       2.035053316255       3.524815739865
        74    1       31.570667419827       0.000000000000       4.699754319820
        75    1       29.909053345099       0.000000000000       0.000000000000
        76    1       31.570667419827       2.035053316255       1.174938579955
        77    1       30.739860382463       2.035053316255       5.874692899775
        78    1       30.739860382463       0.000000000000       2.349877159910
        79    1       32.401474457191       2.035053316255       3.524815739865
        80    1       34.063088531919       0.000000000000       4.699754319820
        81    1       32.401474457191       0.000000000000       0.000000000000
        82    1       34.063088531919       2.035053316255       1.174938579955
        83    1       33.232281494555       2.035053316255       5.874692899775
        84    1       33.232281494555       0.000000000000       2.349877159910
        85    1       34.893895569283       2.035053316255       3.524815739865
        86    1       36.555509644010       0.000000000000       4.699754319820
        87    1       34.893895569283       0.000000000000       0.000000000000
        88    1       36.555509644010       2.035053316255       1.174938579955
        89    1       35.724702606646       2.035053316255       5.874692899775
        90    1       35.724702606646       0.000000000000       2.349877159910
        91    1       37.386316681374       2.035053316255       3.524815739865
        92    1       39.047930756102       0.000000000000       4.699754319820
        93    1       37.386316681374       0.000000000000       0.000000000000
        94    1       39.047930756102       2.035053316255       1.174938579955
        95    1       38.217123718738       2.035053316255       5.874692899775
        96    1       38.217123718738       0.000000000000       2.349877159910
        97    1       39.878737793466       2.035053316255       3.524815739865
        98    1       41.540351868194       0.000000000000       4.699754319820
        99    1       39.878737793466       0.000000000000       0.000000000000
       100    1       41.540351868194       2.035053316255       1.174938579955
       101    1       40.709544830830       2.035053316255       5.874692899775
       102    1       40.709544830830       0.000000000000       2.349877159910
       103    1       42.371158905557       2.035053316255       3.524815739865
       104    1       44.032772980285       0.000000000000       4.699754319820
       105    1       42.371158905557       0.000000000000       0.000000000000
       106    1       44.032772980285       2.035053316255       1.174938579955
       107    1       43.201965942921       2.035053316255       5.874692899775
       108    1       43.201965942921       0.000000000000       2.349877159910
       109    1       44.863580017649       2.035053316255       3.524815739865
       110    1       46.525194092377       0.000000000000       4.699754319820
       111    1       44.863580017649       0.000000000000       0.000000000000
       112    1       46.525194092377       2.035053316255       1.174938579955
       113    1       45.694387055013       2.035053316255       5.874692899775
       114    1       45.694387055013       0.000000000000       2.349877159910
       115    1       47.356001129741       2.035053316255       3.524815739865
       116    1       49.017615204468       0.000000000000       4.699754319820
       117    1       47.356001129741       0.000000000000       0.000000000000
       118    1       49.017615204468       2.035053316255       1.174938579955
       119    1       48.186808167105       2.035053316255       5.874692899775
       120    1       48.186808167105       0.000000000000       2.349877159910
       121    1       49.848422241832       2.035053316255       3.524815739865
       122    1       51.510036316560       0.000000000000       4.699754319820
       123    1       49.848422241832       0.000000000000       0.000000000000
       124    1       51.510036316560       2.035053316255       1.174938579955
       125    1       50.679229279196       2.035053316255       5.874692899775
       126    1       50.679229279196       0.000000000000       2.349877159910
       127    1       52.340843353924       2.035053316255       3.524815739865
       128    1       54.002457428652       0.000000000000       4.699754319820
       129    1       52.340843353924       0.000000000000       0.000000000000
       130    1       54.002457428652       2.035053316255       1.174938579955
       131    1       53.171650391288       2.035053316255       5.874692899775
       132    1       53.171650391288       0.000000000000       2.349877159910
       133    1       54.833264466016       2.035053316255       3.524815739865
       134    1       56.494878540743       0.000000000000       4.699754319820
       135    1       54.833264466016       0.000000000000       0.000000000000
       136    1       56.494878540743       2.035053316255       1.174938579955
       137    1       55.664071503379       2.035053316255       5.874692899775
       138    1       55.664071503379       0.000000000000       2.349877159910
       139    1       57.325685578107       2.035053316255       3.524815739865
       140    1       58.987299652835       0.000000000000       4.699754319820
       141    1       57.325685578107       0.000000000000       0.000000000000
       142    1       58.987299652835       2.035053316255       1.174938579955
       143    1       58.156492615471       2.035053316255       5.874692899775
       144    1       58.156492615471       0.000000000000       2.349877159910
       145    1        0.000000000000       6.105159948765       3.524815739865
       146    1        1.661614074728       4.070106632510       4.699754319820
       147    1        0.000000000000       4.070106632510       0.000000000000
       148    1        1.661614074728       6.105159948765       1.174938579955
       149    1        0.830807037364       6.105159948765       5.874692899775
       150    1        0.830807037364       4.070106632510       2.349877159910
       151    1        2.492421112092       6.105159948765       3.524815739865
       152    1        4.154035186819       4.070106632510       4.699754319820
       153    1        2.492421112092       4.070106632510       0.000000000000
       154    1        4.154035186819       6.105159948765       1.174938579955
       155    1        3.323228149455       6.105159948765       5.874692899775
       156    1        3.323228149455       4.070106632510       2.349877159910
       157    1        4.984842224183       6.105159948765       3.524815739865
       158    1        6.646456298911       4.070106632510       4.699754319820
       159    1        4.984842224183       4.070106632510       0.000000000000
       160    1        6.646456298911       6.105159948765       1.174938579955
       161    1        5.815649261547       6.105159948765       5.874692899775
       162    1        5.815649261547       4.070106632510       2.349877159910
       163    1        7.477263336275       6.105159948765       3.524815739865
       164    1        9.138877411003       4.070106632510       4.699754319820
       165    1        7.477263336275       4.070106632510       0.000000000000
       166    1        9.138877411003       6.105159948765       1.174938579955
       167    1        8.308070373639       6.105159948765       5.874692899775
       168    1        8.308070373639       4.070106632510       2.349877159910
       169    1        9.969684448366       6.105159948765       3.524815739865
       170    1       11.631298523094       4.070106632510       4.699754319820
       171    1        9.969684448366       4.070106632510       0.000000000000
       172    1       11.631298523094       6.105159948765       1.174938579955
       173    1       10.800491485730       6.105159948765       5.874692899775
       174    1       10.800491485730       4.070106632510       2.349877159910
       175    1       12.462105560458       6.105159948765       3.524815739865
       176    1       14.123719635186       4.070106632510       4.699754319820
       177    1       12.462105560458       4.070106632510       0.000000000000
       178    1       14.123719635186       6.105159948765       1.174938579955
       179    1       13.292912597822       6.105159948765       5.874692899775
       180    1       13.292912597822       4.070106632510       2.349877159910
       181    1       14.954526672550       6.105159948765       3.524815739865
       182    1       16.616140747277       4.070106632510       4.699754319820
       183    1       14.954526672550       4.070106632510       0.000000000000
       184    1       16.616140747277       6.105159948765       1.174938579955
       185    1       15.785333709914       6.105159948765       5.874692899775
       186    1       15.785333709914       4.070106632510       2.349877159910
       187    1       17.446947784641       6.105159948765       3.524815739865
       188    1       19.108561859369       4.070106632510       4.699754319820
       189    1       17.446947784641       4.070106632510       0.000000000000
       190    1       19.108561859369       6.105159948765       1.174938579955
       191    1       18.277754822005       6.105159948765       5.874692899775
       192    1       18.277754822005       4.070106632510       2.349877159910
       193    1       19.939368896733       6.105159948765       3.524815739865
       194    1       21.600982971461       4.070106632510       4.699754319820
       195    1       19.939368896733       4.070106632510       0.000000000000
       196    1       21.600982971461       6.105159948765       1.174938579955
       197    1       20.770175934097       6.105159948765       5.874692899775
       198    1       20.770175934097       4.070106632510       2.349877159910
       199    1       22.431790008825       6.105159948765       3.524815739865
       200    1       24.093404083552       4.070106632510       4.699754319820
       201    1       22.431790008825       4.070106632510       0.000000000000
       202    1       24.093404083552       6.105159948765       1.174938579955
       203    1       23.262597046188       6.105159948765       5.874692899775
       204    1       23.262597046188       4.070106632510       2.349877159910
       205    1       24.924211120916       6.105159948765       3.524815739865
       206    1       26.585825195644       4.070106632510       4.699754319820
       207    1       24.924211120916       4.070106632510       0.000000000000
       208    1       26.585825195644       6.105159948765       1.174938579955
       209    1       25.755018158280       6.105159948765       5.874692899775
       210    1       25.755018158280       4.070106632510       2.349877159910
       211    1       27.416632233008       6.105159948765       3.524815739865
       212    1       29.078246307736       4.070106632510       4.699754319820
       213    1       27.416632233008       4.070106632510       0.000000000000
       214    1       29.078246307736       6.105159948765       1.174938579955
       215    1       28.247439270372       6.105159948765       5.874692899775
       216    1       28.247439270372       4.070106632510       2.349877159910
       217    1       29.909053345099       6.105159948765       3.524815739865
       218    1       31.570667419827       4.070106632510       4.699754319820
       219    1       29.909053345099       4.070106632510       0.000000000000
       220    1       31.570667419827       6.105159948765       1.174938579955
       221    1       30.739860382463       6.105159948765       5.874692899775
       222    1       30.739860382463       4.070106632510       2.349877159910
       223    1       32.401474457191       6.105159948765       3.524815739865
       224    1       34.063088531919       4.070106632510       4.699754319820
       225    1       32.401474457191       4.070106632510       0.000000000000
       226    1       34.063088531919       6.105159948765       1.174938579955
       227    1       33.232281494555       6.105159948765       5.874692899775
       228    1       33.232281494555       4.070106632510       2.349877159910
       229    1       34.893895569283       6.105159948765       3.524815739865
       230    1       36.555509644010       4.070106632510       4.699754319820
       231    1       34.893895569283       4.070106632510       0.000000000000
       232    1       36.555509644010       6.105159948765       1.174938579955
       233    1       35.724702606646       6.105159948765       5.874692899775
       234    1       35.724702606646       4.070106632510       2.349877159910
       235    1       37.386316681374       6.105159948765       3.524815739865
       236    1       39.047930756102       4.070106632510       4.699754319820
       237    1       37.386316681374       4.070106632510       0.000000000000
       238    1       39.047930756102       6.105159948765       1.174938579955
       239    1       38.217123718738       6.105159948765       5.874692899775
       240    1       38.217123718738       4.070106632510       2.349877159910
       241    1       39.878737793466       6.105159948765       3.524815739865
       242    1       41.540351868194       4.070106632510       4.699754319820
       243    1       39.878737793466       4.070106632510       0.000000000000
       244    1       41.540351868194       6.105159948765       1.174938579955
       245    1       40.709544830830       6.105159948765       5.874692899775
       246    1       40.709544830830       4.070106632510       2.349877159910
       247    1       42.371158905557       6.105159948765       3.524815739865
       248    1       44.032772980285       4.070106632510       4.699754319820
       249    1       42.371158905557       4.070106632510       0.000000000000
       250    1       44.032772980285       6.105159948765       1.174938579955
       251    1       43.201965942921       6.105159948765       5.874692899775
       252    1       43.201965942921       4.070106632510       2.349877159910
       253    1       44.863580017649       6.105159948765       3.524815739865
       254    1       46.525194092377       4.070106632510       4.699754319820
       255    1       44.863580017649       4.070106632510       0.000000000000
       256    1       46.525194092377       6.105159948765       1.174938579955
       257    1       45.694387055013       6.105159948765       5.874692899775
       258    1       45.694387055013       4.070106632510       2.349877159910
       259    1       47.356001129741       6.105159948765       3.524815739865
       260    1       49.017615204468       4.070106632510       4.699754319820
       261    1       47.356001129741       4.070106632510       0.000000000000
       262    1       49.017615204468       6.105159948765       1.174938579955
       263    1       48.186808167105       6.105159948765       5.874692899775
       264    1       48.186808167105       4.070106632510       2.349877159910
       265    1       49.848422241832       6.105159948765       3.524815739865
       266    1       51.510036316560       4.070106632510       4.699754319820
       267    1       49.848422241832       4.070106632510       0.000000000000
       268    1       51.510036316560       6.105159948765       1.174938579955
       269    1       50.679229279196       6.105159948765       5.874692899775
       270    1       50.679229279196       4.070106632510       2.349877159910
       271    1       52.340843353924       6.105159948765       3.524815739865
       272    1       54.002457428652       4.070106632510       4.699754319820
       273    1       52.340843353924       4.070106632510       0.000000000000
       274    1       54.002457428652       6.105159948765       1.174938579955
       275    1       53.171650391288       6.105159948765       5.874692899775
       276    1       53.171650391288       4.070106632510       2.349877159910
       277    1       54.833264466016       6.105159948765       3.524815739865
       278    1       56.494878540743       4.070106632510       4.699754319820
       279    1       54.833264466016       4.070106632510       0.000000000000
       280    1       56.494878540743       6.105159948765       1.174938579955
       281    1       55.664071503379       6.105159948765       5.874692899775
       282    1       55.664071503379       4.070106632510       2.349877159910
       283    1       57.325685578107       6.105159948765       3.524815739865
       284    1       58.987299652835       4.070106632510       4.699754319820
       285    1       57.325685578107       4.070106632510       0.000000000000
       286    1       58.987299652835       6.105159948765       1.174938579955
       287    1       58.156492615471       6.105159948765       5.874692899775
       288    1       58.156492615471       4.070106632510       2.349877159910
       289    1        0.000000000000      10.175266581274       3.524815739865
       290    1        1.661614074728       8.140213265020       4.699754319820
       291    1        0.000000000000       8.140213265020       0.000000000000
       292    1        1.661614074728      10.175266581274       1.174938579955
       293    1        0.830807037364      10.175266581274       5.874692899775
       294    1        0.830807037364       8.140213265020       2.349877159910
       295    1        2.492421112092      10.175266581274       3.524815739865
       296    1        4.154035186819       8.140213265020       4.699754319820
       297    1        2.492421112092       8.140213265020       0.000000000000
       298    1        4.154035186819      10.175266581274       1.174938579955
       299    1        3.323228149455      10.175266581274       5.874692899775
       300    1        3.323228149455       8.140213265020       2.349877159910
       301    1        4.984842224183      10.175266581274       3.524815739865
       302    1        6.646456298911       8.140213265020       4.699754319820
       303    1        4.984842224183       8.140213265020       0.000000000000
       304    1        6.646456298911      10.175266581274       1.174938579955
       305    1        5.815649261547      10.175266581274       5.874692899775
       306    1        5.815649261547       8.140213265020       2.349877159910
       307    1        7.477263336275      10.175266581274       3.524815739865
       308    1        9.138877411003       8.140213265020       4.699754319820
       309    1        7.477263336275       8.140213265020       0.000000000000
       310    1        9.138877411003      10.175266581274       1.174938579955
       311    1        8.308070373639      10.175266581274       5.874692899775
       312    1        8.308070373639       8.140213265020       2.349877159910
       313    1        9.969684448366      10.175266581274       3.524815739865
       314    1       11.631298523094       8.140213265020       4.699754319820
       315    1        9.969684448366       8.140213265020       0.000000000000
       316    1       11.631298523094      10.175266581274       1.174938579955
       317    1       10.800491485730      10.175266581274       5.874692899775
       318    1       10.800491485730       8.140213265020       2.349877159910
       319    1       12.462105560458      10.175266581274       3.524815739865
       320    1       14.123719635186       8.140213265020       4.699754319820
       321    1       12.462105560458       8.140213265020       0.000000000000
       322    1       14.123719635186      10.175266581274       1.174938579955
       323    1       13.292912597822      10.175266581274       5.874692899775
       324    1       13.292912597822       8.140213265020       2.349877159910
       325    1       14.954526672550      10.175266581274       3.524815739865
       326    1       16.616140747277       8.140213265020       4.699754319820
       327    1       14.954526672550       8.140213265020       0.000000000000
       328    1       16.616140747277      10.175266581274       1.174938579955
       329    1       15.785333709914      10.175266581274       5.874692899775
       330    1       15.785333709914       8.140213265020       2.349877159910
       331    1       17.446947784641      10.175266581274       3.524815739865
       332    1       19.108561859369       8.140213265020       4.699754319820
       333    1       17.446947784641       8.140213265020       0.000000000000
       334    1       19.108561859369      10.175266581274       1.174938579955
       335    1       18.277754822005      10.175266581274       5.874692899775
       336    1       18.277754822005       8.140213265020       2.349877159910
       337    1       19.939368896733      10.175266581274       3.524815739865
       338    1       21.600982971461       8.140213265020       4.699754319820
       339    1       19.939368896733       8.140213265020       0.000000000000
       340    1       21.600982971461      10.175266581274       1.174938579955
       341    1       20.770175934097      10.175266581274       5.874692899775
       342    1       20.770175934097       8.140213265020       2.349877159910
       343    1       22.431790008825      10.175266581274       3.524815739865
       344    1       24.093404083552       8.140213265020       4.699754319820
       345    1       22.431790008825       8.140213265020       0.000000000000
       346    1       24.093404083552      10.175266581274       1.174938579955
       347    1       23.262597046188      10.175266581274       5.874692899775
       348    1       23.262597046188       8.140213265020       2.349877159910
       349    1       24.924211120916      10.175266581274       3.524815739865
       350    1       26.585825195644       8.140213265020       4.699754319820
       351    1       24.924211120916       8.140213265020       0.000000000000
       352    1       26.585825195644      10.175266581274       1.174938579955
       353    1       25.755018158280      10.175266581274       5.874692899775
       354    1       25.755018158280       8.140213265020       2.349877159910
       355    1       27.416632233008      10.175266581274       3.524815739865
       356    1       29.078246307736       8.140213265020       4.699754319820
       357    1       27.416632233008       8.140213265020       0.000000000000
       358    1       29.078246307736      10.175266581274       1.174938579955
       359    1       28.247439270372      10.175266581274       5.874692899775
       360    1       28.247439270372       8.140213265020       2.349877159910
       361    1       29.909053345099      10.175266581274       3.524815739865
       362    1       31.570667419827       8.140213265020       4.699754319820
       363    1       29.909053345099       8.140213265020       0.000000000000
       364    1       31.570667419827      10.175266581274       1.174938579955
       365    1       30.739860382463      10.175266581274       5.874692899775
       366    1       30.739860382463       8.140213265020       2.349877159910
       367    1       32.401474457191      10.175266581274       3.524815739865
       368    1       34.063088531919       8.140213265020       4.699754319820
       369    1       32.401474457191       8.140213265020       0.000000000000
       370    1       34.063088531919      10.175266581274       1.174938579955