ITEM: TIMESTEP
50000
ITEM: NUMBER OF ATOMS
6750
ITEM: BOX BOUNDS pp pp pp
0.0000000000000000e+00 4.3172969609644298e+01
0.0000000000000000e+00 4.3174755339904301e+01
0.0000000000000000e+00 4.3174716072957501e+01
ITEM: ATOMS id type x y z v_sa_hydro v_sa_von
2 1 1.46345 1.36635 1.49443 -3.49587 9.88071
483 1 2.89883 2.90939 2.83893 1.35465 8.79145
31 1 0.119886 2.99685 0.0540057 5.93538 7.22458
481 1 0.0415656 2.83174 2.84379 -0.865911 10.3623
453 1 2.92367 0.00143883 3.04536 0.203705 15.0778
33 1 2.90365 2.77624 0.0622999 2.91706 3.64055
455 1 5.74718 0.119568 2.85086 1.53123 12.426
4 1 4.38301 1.39667 1.43714 -0.0459607 18.1886
485 1 5.85848 2.94582 2.90218 1.68939 12.804
6 1 7.26263 1.44076 1.39984 2.66074 6.8356
8 1 10.1245 1.48673 1.41494 -4.16456 15.8517
487 1 8.69796 2.79912 2.87952 -2.32937 8.08212
457 1 8.71633 0.0552223 2.76016 -3.29597 3.09777
489 1 11.5924 2.8943 3.02327 -0.603333 12.9675
10 1 12.8683 1.58917 1.49504 -3.2719 9.38373
491 1 14.3165 2.90712 3.00316 -2.54001 4.74601
459 1 11.5989 0.0410458 2.84021 -1.34802 1.67571
9 1 11.7132 0.0498144 0.0678281 1.78156 3.91761
39 1 11.4412 2.90095 0.038942 -4.22078 7.62303
11 1 14.3172 0.0151433 0.012553 2.10818 8.04342
493 1 17.0678 2.80723 2.8637 1.95014 9.78635
12 1 15.7654 1.46918 1.39643 -7.25776 16.218
43 1 17.1659 2.73528 0.0405697 -3.54701 11.0604
463 1 17.1777 0.0763636 2.89759 -0.221807 10.932
465 1 20.0134 0.104864 2.8818 -6.5644 20.142
14 1 18.5868 1.41022 1.47118 -6.46841 14.4705
495 1 19.9537 2.80696 2.81182 0.256296 8.95109
16 1 21.5791 1.56069 1.48776 -2.13529 16.0087
45 1 20.1634 2.77556 0.0851569 -5.9381 17.0702
497 1 23.0564 2.81736 2.95245 2.49699 6.88233
18 1 24.4949 1.42841 1.45528 -1.24434 6.83507
47 1 23.0944 2.82401 0.0536486 -0.0110719 6.8051
20 1 27.2969 1.45968 1.49912 -3.34594 15.8669
499 1 25.9807 2.89225 2.77107 -0.326595 17.4306
49 1 25.9093 2.86147 0.0470659 -0.340913 7.38628
471 1 28.7585 0.0142831 2.80248 2.04515 7.41901
501 1 28.9574 2.90748 2.92584 1.80177 8.77873
22 1 30.3206 1.37041 1.34916 4.80778 6.38008
503 1 31.6677 2.92625 2.83169 -1.06405 9.52163
475 1 34.6733 0.0101524 2.80432 0.973404 5.03226
24 1 33.1028 1.41285 1.38814 3.18154 9.9169
505 1 34.5673 2.89104 2.8822 -3.98752 5.62743
26 1 35.9166 1.51837 1.39665 2.39171 7.22257
477 1 37.4088 0.111734 2.93686 3.61313 3.76641
28 1 38.8014 1.43562 1.43279 -0.199361 10.7414
507 1 37.491 2.78092 2.90158 -3.20861 7.78699
57 1 37.4663 3.00302 0.0466997 3.95227 8.18356
30 1 41.7258 1.48604 1.42694 -0.527603 14.7196
509 1 40.3601 2.80969 2.82365 -7.58226 7.8758
29 1 40.3741 0.0255459 0.078158 -2.40413 7.74123
32 1 1.57637 4.46726 1.47945 -2.88592 10.7839
513 1 2.88912 5.66453 3.04092 -4.11254 15.5007
511 1 0.0821893 5.63095 2.85334 -2.43397 11.0423
62 1 1.40452 7.18043 1.3437 1.11625 14.0826
63 1 2.96589 5.76023 0.0207582 -0.783131 9.3116
34 1 4.41707 4.19785 1.42697 2.67909 4.86791
515 1 5.75531 5.6955 2.97272 2.0428 4.81031
64 1 4.38035 7.0635 1.418 2.3518 10.3306
66 1 7.16756 7.06841 1.40552 2.31697 11.5101
36 1 7.27921 4.25129 1.52087 1.91079 7.81509
38 1 10.1163 4.29433 1.45462 -3.59926 10.6484
517 1 8.69984 5.73043 2.98179 2.93138 5.05145
68 1 10.1088 7.19458 1.43779 -4.72178 8.15396
519 1 11.5919 5.7841 2.88968 -1.49406 6.89932
40 1 13.0524 4.23642 1.46165 -1.03235 3.88655
71 1 14.363 5.80892 0.0698654 -1.69005 7.81643
69 1 11.4574 5.71895 0.11452 -4.16227 14.3555
70 1 12.8686 7.16203 1.32371 -5.56483 10.4291
521 1 14.4153 5.75457 2.86253 -2.53172 9.14326
42 1 15.7383 4.20771 1.38185 0.236036 7.02392
523 1 17.2845 5.71461 2.68445 1.26389 10.7284
72 1 15.8876 7.17274 1.40396 -0.689423 7.05796
525 1 20.106 5.73918 2.83388 3.57962 3.71931
44 1 18.7416 4.21368 1.27156 -1.93081 20.332
46 1 21.6002 4.33427 1.45924 4.68563 7.24105
527 1 23.0453 5.70306 2.9494 1.53011 5.18631
48 1 24.4127 4.30579 1.407 3.44314 3.93227
77 1 23.1489 5.93708 0.0151638 -6.10134 15.439
50 1 27.4658 4.31025 1.41429 0.965012 4.53458
529 1 26.0107 5.76838 2.93901 4.06145 8.45076
79 1 26.0318 5.70672 0.079427 -0.14534 12.1254
80 1 27.3392 7.16563 1.46367 3.19625 7.1923
531 1 28.8407 5.73197 2.85379 5.98286 10.3509
52 1 30.2876 4.16698 1.32763 -1.66516 7.81152
533 1 31.6033 5.72411 2.92998 -0.172553 6.56442
54 1 33.0967 4.33743 1.4353 0.0853298 8.81347
535 1 34.4869 5.72805 2.964 -4.42904 10.3272
86 1 35.8788 7.08154 1.4775 -0.874404 4.8564
56 1 35.7973 4.35529 1.45466 -3.03925 8.98925
537 1 37.474 5.75237 2.7737 1.7469 3.03224
58 1 38.9195 4.25307 1.53693 -0.0147062 3.02351
87 1 37.37 5.81606 0.0279584 1.46236 7.17116
90 1 41.8576 7.18276 1.44995 2.51061 7.35355
539 1 40.2936 5.84324 2.9245 -4.70807 13.6295
60 1 41.6298 4.35481 1.49135 1.49345 4.7387
89 1 40.2222 5.84554 0.0505391 5.28369 3.82368
92 1 1.48765 10.0106 1.33962 0.554691 4.57012
543 1 2.9454 8.61605 2.76944 3.42035 6.20937
93 1 2.89332 8.4584 0.000625627 -4.4023 15.6627
545 1 5.73997 8.57457 2.92977 2.72711 4.96067
94 1 4.37749 10.0241 1.43785 0.574916 9.69747
96 1 7.17433 10.0895 1.43363 1.95318 9.46267
97 1 8.56538 8.58155 0.186155 0.539067 7.44426
98 1 10.0436 10.1385 1.46481 1.27945 6.47556
547 1 8.58975 8.56128 2.90107 3.98194 4.59247
99 1 11.3825 8.70125 0.0103512 -14.188 18.0531
549 1 11.4502 8.60488 2.83443 -7.25398 12.7895
100 1 12.799 9.92985 1.40121 -3.2491 15.6426
551 1 14.3874 8.57292 2.85783 -2.34099 9.91874
101 1 14.3791 8.65949 0.03249 -1.15588 7.0126
102 1 15.9716 9.91125 1.56678 -1.68722 4.16112
553 1 17.3579 8.54508 2.86791 -9.47486 17.4026
74 1 18.7364 7.25499 1.43138 -0.281703 6.24649
105 1 20.2382 8.59244 0.0481084 1.66069 3.82218
104 1 18.6098 10.0856 1.3892 -1.22603 9.20648
555 1 20.167 8.63927 2.92172 -4.16825 11.0644
106 1 21.4355 10.0495 1.52571 -2.67012 8.24452
76 1 21.6211 7.24977 1.48362 1.0948 5.26201
78 1 24.4994 7.22093 1.45068 -0.560256 14.4717
107 1 23.1469 8.684 0.00149572 0.582553 7.91255
557 1 23.0132 8.74278 2.87045 1.75617 13.9768
108 1 24.5649 10.1422 1.37972 -5.54836 13.8828
109 1 25.868 8.65443 0.0695997 -1.06538 7.01093
110 1 27.2968 10.0656 1.36843 1.25107 11.245
559 1 25.8787 8.62291 2.92617 1.82504 7.61066
82 1 30.2632 7.24527 1.4176 4.0853 5.54552
561 1 28.9051 8.69543 2.90273 0.821217 10.5633
112 1 30.1713 10.1761 1.50136 1.1999 9.03495
563 1 31.5614 8.73086 2.87948 0.510552 6.15885
84 1 33.0742 7.21099 1.54832 4.28068 5.18509
114 1 33.1147 10.1013 1.46109 -2.04753 4.87489
565 1 34.5452 8.63848 2.90768 -1.14834 8.23079
115 1 34.4978 8.70732 0.0900774 -1.44751 8.53671
116 1 35.8951 10.0767 1.57759 -5.49979 5.02961
117 1 37.3342 8.54464 0.153094 -4.91222 18.426
88 1 38.8499 7.305 1.41482 -5.4404 10.584
567 1 37.3605 8.59545 2.85009 0.623259 6.98826
118 1 38.7636 10.0038 1.44151 -2.23026 9.61455
541 1 43.1698 8.65812 2.80412 -6.02668 21.7452
569 1 40.336 8.64657 2.84728 0.105437 9.01814
120 1 41.8429 10.0443 1.37379 -6.86481 7.89749
119 1 40.343 8.6671 0.0298748 -0.0881662 6.40886
573 1 2.92565 11.5239 2.65995 1.06603 13.6778
122 1 1.3901 13.024 1.38795 2.60932 7.92146
571 1 0.0934034 11.4858 2.71111 -0.650979 7.73391
575 1 5.73048 11.602 2.81412 -2.54156 6.68375
124 1 4.41363 12.9547 1.32516 1.01846 11.9988
126 1 7.3139 13.017 1.50463 1.08024 2.01513
577 1 8.61715 11.5066 2.97868 -1.70364 6.24492
128 1 9.97115 12.9299 1.35686 1.38714 5.96415
579 1 11.4497 11.499 2.92157 -2.42569 16.7577
130 1 12.7943 12.9087 1.4694 2.33958 4.34533
131 1 14.2834 11.5119 0.0514821 8.55076 4.884
581 1 14.1903 11.4217 2.80521 1.98691 6.46832
583 1 17.1951 11.4874 2.93224 -6.17212 10.9005
132 1 15.8197 12.9444 1.41095 1.2999 7.45537
161 1 14.4033 14.3884 0.0888111 1.49405 7.58718
134 1 18.5675 13.0817 1.39854 -0.046727 12.2288
585 1 20.0048 11.5668 2.77772 -0.36583 4.51432
135 1 20.0817 11.5271 0.0812296 1.88337 8.86064
615 1 20.0078 14.3025 2.88694 1.03687 8.90506
136 1 21.612 12.9597 1.35665 0.975645 6.68236
138 1 24.4201 13.0541 1.40014 -1.0916 4.80372
587 1 23.0083 11.5565 2.91207 2.66604 3.63049
617 1 22.9432 14.3127 2.91452 0.693028 4.40311
137 1 23.0052 11.4352 0.0830422 -1.46854 15.0526
589 1 25.7923 11.4919 2.85263 1.08793 12.0013
140 1 27.2721 12.9695 1.47946 0.778709 7.0896
619 1 25.7971 14.37 2.89753 2.47733 7.33623
141 1 28.6307 11.5328 0.0384698 0.9096 11.8821
591 1 28.6788 11.585 2.97468 -0.0872439 10.9902
142 1 30.1298 12.9235 1.56907 4.59595 4.00101
593 1 31.6601 11.5586 2.96224 3.03445 5.73901
144 1 33.0573 13 1.4369 1.77843 6.63702
595 1 34.5052 11.531 2.9212 -3.82534 17.0226
175 1 34.7208 14.2794 0.0461747 -1.25824 9.17517
145 1 34.5742 11.5017 0.0812156 -3.00516 11.1235
146 1 35.9885 12.8535 1.40247 -8.28217 9.6922
148 1 38.85 12.8834 1.37571 -0.954914 8.06285
597 1 37.4179 11.5009 2.90886 -0.650304 8.29995
627 1 37.3881 14.3535 2.88401 3.05162 6.91564
177 1 37.434 14.2964 0.0362108 -3.222 6.14635
147 1 37.3687 11.4937 0.0450549 -1.58317 8.90862
599 1 40.356 11.4519 2.8207 -0.830876 6.21149
150 1 41.7626 12.9511 1.47692 2.46717 4.87161
629 1 40.3052 14.3899 2.94098 -1.98633 12.9555
149 1 40.2583 11.3822 0.142664 -0.330999 6.51439
603 1 2.81949 14.4949 2.7833 2.01619 7.44137
152 1 1.46405 15.85 1.40019 1.36995 16.2879
633 1 2.72928 17.2474 2.94347 3.32064 8.46105
183 1 2.95433 17.4305 0.0210566 2.23486 3.05941
605 1 5.63118 14.4535 2.87143 -0.866973 6.53684
154 1 4.29739 15.8619 1.354 2.44545 8.18287
635 1 5.78793 17.2909 2.94944 1.91532 5.87977
185 1 5.83034 17.2389 0.0303181 1.13328 14.7562
607 1 8.58251 14.4533 3.01284 -5.32272 15.6242
156 1 7.24213 15.7053 1.50805 -2.07863 15.047
158 1 10.0095 15.8236 1.28856 3.00474 4.79858
637 1 8.56816 17.2035 2.90243 1.88615 8.71535
611 1 14.3876 14.4101 2.93441 -2.05956 18.0025
609 1 11.385 14.4305 2.91941 4.95123 5.37556
639 1 11.398 17.2401 2.87949 1.06836 8.08409
160 1 12.9732 15.7496 1.52402 3.81735 5.54907
641 1 14.4217 17.3293 2.86024 -2.59824 7.17177
613 1 17.2643 14.4401 2.93683 -3.36046 13.9578
162 1 15.8212 15.7101 1.53017 -0.504465 5.82996
643 1 17.2577 17.3775 2.92783 -0.110069 7.04818
193 1 17.2442 17.2186 3.25326e-05 0.390545 9.05964
191 1 14.4425 17.3164 0.149969 0.757554 8.29255
164 1 18.6657 15.8984 1.41684 3.83027 8.03708
645 1 20.135 17.2932 2.86908 2.36187 9.78845
166 1 21.5704 15.716 1.50598 2.26605 10.0241
195 1 20.2966 17.2325 0.0343321 1.67645 9.41825
647 1 23.0344 17.2242 2.95788 0.195432 7.58729
197 1 22.8871 17.1934 0.0727183 3.12776 9.84455
168 1 24.4891 16.0329 1.42267 2.2051 8.65157
621 1 28.7095 14.4807 2.80257 -1.74201 11.717
170 1 27.2785 15.9045 1.48189 -2.34812 8.52528
649 1 25.9871 17.2901 2.94477 -3.96572 9.36744
651 1 28.7388 17.2658 2.88791 -4.8672 8.8423
169 1 25.8959 14.414 0.0849615 -1.32361 13.0753
623 1 31.6953 14.4017 2.83939 1.14212 6.56448
171 1 28.8262 14.4286 0.0586144 1.92312 7.38167
653 1 31.7581 17.3572 2.92629 -5.1404 19.3497
172 1 30.3037 15.8876 1.49717 3.33803 8.58943
625 1 34.5958 14.4028 2.86214 2.80595 6.33536
655 1 34.4592 17.1686 2.95934 -2.91158 18.1333
174 1 33.1806 15.798 1.34525 2.97696 7.60899
176 1 36.0957 15.9309 1.37273 -8.31493 30.4453
207 1 37.4688 17.1271 0.0114669 -9.07821 32.2219
657 1 37.4479 17.31 2.80272 -2.32957 12.665
178 1 38.8151 15.7113 1.49076 -0.0604328 3.98546
601 1 43.1671 14.4466 2.96753 -2.10469 6.95633
631 1 43.1418 17.3601 2.90895 1.35096 8.65425
209 1 40.4568 17.2131 0.0311881 4.37608 1.87242
180 1 41.7809 15.7223 1.50823 1.02211 9.46766
659 1 40.3661 17.3139 2.72996 5.10011 7.47285
182 1 1.38059 18.7646 1.31368 0.246022 8.27669
663 1 2.78981 20.1823 2.83559 3.35318 5.59619
661 1 0.00963344 20.2337 2.89663 1.14683 11.4811
213 1 2.80683 20.2516 0.0126047 -2.12951 8.20681
184 1 4.29919 18.7579 1.5225 2.15916 6.08924
665 1 5.86496 20.3158 2.75961 1.39614 7.57194
186 1 7.15227 18.6319 1.44159 -0.757072 9.87704
215 1 5.73082 20.0946 0.0909772 -0.158477 7.12255
188 1 10.0716 18.7059 1.5395 0.572707 8.36496
667 1 8.48307 20.2025 2.74039 -1.32397 12.3347
218 1 10.0223 21.5376 1.54158 -4.64292 11.154
217 1 8.6374 20.1924 0.0510592 1.84221 8.19396
190 1 12.9245 18.6799 1.51992 2.31886 9.15073
669 1 11.4841 20.1357 2.87643 -4.49295 8.00992
671 1 14.3587 20.2168 2.88877 1.6619 6.55502
220 1 12.8999 21.543 1.47505 2.2405 8.46017
673 1 17.2631 20.1667 3.08393 0.666531 6.50273
192 1 15.8255 18.7133 1.44675 -0.449376 11.0315
222 1 15.8747 21.5426 1.43373 4.40824 11.0372
223 1 17.3407 20.0016 0.0073981 -1.65673 4.0429
194 1 18.7312 18.6983 1.43413 2.54868 16.1358
675 1 20.1449 20.1547 3.01691 2.71643 8.55701
226 1 21.4841 21.5051 1.44675 -5.68845 22.7375
196 1 21.6119 18.8328 1.4743 4.93863 7.54344
198 1 24.4132 18.6837 1.60775 0.873445 13.1887
677 1 23.0893 20.1763 2.86552 -1.98983 16.4308
200 1 27.3992 18.6135 1.37453 -0.181219 4.49693
679 1 25.9816 20.2134 2.90278 3.69251 6.01892
229 1 25.8438 20.0641 0.0460341 7.71312 6.28005
681 1 28.809 20.1657 2.88736 0.0637971 10.9402
202 1 30.1928 18.5725 1.53127 -0.207768 5.07067
683 1 31.6138 20.0243 2.97425 -1.89587 10.3889
232 1 30.1922 21.5498 1.53903 0.694893 12.2055
233 1 31.5994 20.1036 0.0819082 5.68108 7.1387
204 1 33.1973 18.7143 1.40422 0.606206 6.33818
685 1 34.6153 19.9765 2.84777 2.25506 8.17384
234 1 33.0782 21.4199 1.57681 4.81207 4.94087
206 1 36.0992 18.6744 1.4055 -0.771045 9.76622
687 1 37.487 20.1504 2.79817 0.0359879 8.02294
208 1 38.87 18.7507 1.38766 3.82755 7.12522
236 1 35.9975 21.5576 1.42122 2.43032 6.64
210 1 41.8694 18.7044 1.40492 -0.244669 8.3549
689 1 40.3384 20.2892 2.88759 2.59693 10.2768
212 1 1.4248 21.7095 1.45107 -0.789283 8.65008
242 1 1.54629 24.6165 1.41086 -1.8929 8.40302
693 1 2.87 23.0053 2.92867 -5.89567 12.951
691 1 0.0654094 23.0974 2.84133 1.52325 10.9213
214 1 4.30697 21.6538 1.47096 0.740329 3.30841
695 1 5.82649 23.1353 2.86693 0.363874 5.51192
244 1 4.32813 24.4567 1.42326 -2.77775 20.1436
245 1 5.7321 23.147 0.105701 -7.14688 16.5601
246 1 7.19317 24.5999 1.45068 -0.975557 7.09535
216 1 7.20937 21.7567 1.29693 -8.14781 19.2763
697 1 8.73306 23.206 2.84557 -0.442114 7.10522
248 1 10.084 24.5898 1.47786 -13.4269 19.8489
247 1 8.70241 23.1351 0.175726 -4.31216 20.0507
250 1 13.0407 24.4881 1.50321 -2.7163 14.2096
699 1 11.4221 23.0647 2.73075 -0.119912 4.39647
249 1 11.5493 23.1148 0.104112 0.637859 6.217
251 1 14.3367 23.1263 0.0816492 1.51251 11.1154
701 1 14.4086 22.9802 3.03355 0.61791 7.73994
252 1 15.7359 24.5083 1.68218 -0.150564 5.29575
703 1 17.2458 23.0842 2.94739 -2.64148 9.2495
253 1 17.2751 22.9817 0.102393 -3.90346 5.36355
224 1 18.6547 21.6022 1.4477 1.46576 6.28847
254 1 18.6308 24.4039 1.55261 3.97982 11.0607
705 1 20.1665 22.9361 2.9755 3.21334 5.05829
256 1 21.5659 24.4726 1.55841 4.78275 5.88948
255 1 20.2626 22.9382 0.120296 -6.94639 23.2008
228 1 24.5457 21.5997 1.44824 0.754904 6.04786
258 1 24.444 24.3765 1.55667 -0.08675 8.18688
707 1 23.0196 22.8972 2.8741 2.14868 12.467
230 1 27.4186 21.6717 1.38839 0.0662346 7.03707
709 1 26.0073 23.0074 2.87828 1.9033 4.58281
259 1 25.9273 23.02 0.067878 0.342117 13.3172
260 1 27.3393 24.572 1.43606 1.9574 5.44231
261 1 28.7374 23.1087 0.0158406 -3.31686 10.3647
711 1 28.8089 23.0684 2.83213 1.37081 6.33495
262 1 30.2108 24.5011 1.43728 1.70832 6.23438
713 1 31.7207 23.0692 2.89397 1.69348 10.1596
263 1 31.6384 22.9391 0.0204992 4.36336 3.56078
264 1 33.0373 24.4679 1.48731 1.74066 11.0863
715 1 34.5394 22.9913 2.78856 3.62324 8.06459
266 1 35.8871 24.4723 1.42074 1.85839 13.1581
238 1 38.9448 21.5875 1.45346 1.68515 10.2519
717 1 37.4133 23.0495 2.71292 3.62483 7.54791
268 1 38.85 24.6745 1.4563 3.18965 4.89225
240 1 41.8577 21.7489 1.39487 -1.33538 3.42319
719 1 40.2697 23.2258 2.84183 2.53488 7.41698
270 1 41.6418 24.6249 1.26558 1.46796 7.50504
272 1 1.48549 27.4259 1.49608 -7.15824 8.59909
723 1 2.94022 26.0007 2.74272 -6.89795 9.51668
721 1 0.0393703 25.9947 2.69582 -0.99551 7.17382
274 1 4.44067 27.4068 1.44002 -2.24199 6.65239
725 1 5.78259 26.0006 2.85238 -2.32931 9.77089
276 1 7.15597 27.3252 1.34409 -2.84612 13.4366
755 1 5.81727 28.7308 2.88909 -3.58208 10.2952
727 1 8.73769 26.0368 2.82045 -1.22872 7.61374
278 1 10.1834 27.4021 1.46028 -5.58285 11.6172
307 1 8.60594 28.6555 0.0232595 -2.79663 4.20121
280 1 13.1073 27.3609 1.50433 -1.78766 15.6115
729 1 11.4566 25.9177 2.78843 -7.09157 13.3622
731 1 14.3066 25.8435 3.08219 -4.46733 14.939
761 1 14.341 28.7438 2.94804 -3.81923 14.0756
279 1 11.6132 26.0776 0.0654444 0.725904 9.74577
733 1 17.1715 25.8957 3.05874 -0.52265 10.3876
282 1 15.9023 27.2983 1.45929 3.2063 6.42905
281 1 14.4204 25.9219 0.0546603 -1.06418 7.11581
311 1 14.5228 28.7187 0.00291638 1.20643 6.10431
765 1 20.0578 28.7674 2.91036 5.56688 13.1742
735 1 20.1729 25.9689 2.91175 -1.29037 10.6163
284 1 18.6813 27.2494 1.41275 5.39808 8.29131
286 1 21.5697 27.2184 1.47679 1.35091 14.8322
285 1 20.0804 25.8555 0.0179643 -0.263854 6.57403
287 1 23.0919 25.753 0.095003 1.52546 6.7236
737 1 23.1071 25.8917 2.89821 -2.82168 12.9996
288 1 24.4976 27.2859 1.55137 3.59137 7.28111
317 1 22.9121 28.7366 0.0994938 3.83554 6.41501
739 1 25.9047 25.907 2.97724 2.54908 5.04082
290 1 27.2955 27.3229 1.54163 -0.0119078 1.6517
771 1 28.7811 28.6614 3.02933 -0.360191 9.52513
291 1 28.7665 25.9869 0.0761615 -2.97942 10.8316
321 1 28.7465 28.7205 0.0830493 -1.90904 9.73624
741 1 28.8437 26.0174 2.89484 -1.49802 5.16368
773 1 31.7709 28.6961 2.8097 0.653018 6.2219
743 1 31.6378 25.8648 2.9195 0.8721 4.01344
292 1 30.2727 27.2496 1.4307 -2.6161 11.963
294 1 33.0131 27.3251 1.29397 0.366114 11.631
745 1 34.4929 25.9736 3.00807 3.04553 3.18045
296 1 35.8885 27.2731 1.40415 4.62324 6.16116
775 1 34.4982 28.7557 2.86603 3.41944 6.91064
298 1 38.8288 27.3676 1.28421 -0.225815 11.3778
747 1 37.4162 25.9888 2.89658 0.174157 10.6613
777 1 37.3477 28.6893 2.90096 -1.19833 6.31317
300 1 41.7111 27.4067 1.29396 -5.74713 10.2263
749 1 40.3332 26.162 2.81872 0.441183 6.77174
779 1 40.3333 28.7602 2.86286 -1.63387 9.74633
751 1 0.047856 28.8821 2.80981 -3.22859 3.7783
301 1 0.00563022 28.8347 0.0480067 1.72143 9.59899
783 1 2.88701 31.6968 2.74084 -1.87218 17.7339
302 1 1.50201 30.2854 1.46368 -4.28378 14.3365
753 1 2.92486 28.8614 2.81504 -6.83357 17.723
785 1 5.84071 31.6834 2.88233 2.82951 8.45366
304 1 4.40908 30.1666 1.42728 1.29011 7.32253
757 1 8.56245 28.8021 2.78349 0.719106 13.3062
306 1 7.19918 30.2684 1.35258 2.57122 7.46169
308 1 9.93533 30.2071 1.39962 4.67086 5.94841
787 1 8.64261 31.7792 2.86664 0.000473727 7.42439
759 1 11.5704 28.8215 2.8708 -0.525234 1.82074
789 1 11.5352 31.7652 2.81161 2.32143 11.584
310 1 13.0567 30.2494 1.47868 5.35884 3.7581
791 1 14.3175 31.7285 2.98322 -0.550592 13.3013
793 1 17.236 31.8064 3.002 -0.42006 11.8431
312 1 15.7791 30.3165 1.49925 3.39399 3.44786
343 1 17.2108 31.6303 0.035488 -0.575586 7.14552
763 1 17.3036 28.8289 2.87853 3.03965 3.53334
313 1 17.2012 28.8246 0.0433956 1.20801 13.377
316 1 21.4661 30.2046 1.48501 3.6268 6.01765
795 1 20.0907 31.6563 2.967 -0.528693 3.37255
314 1 18.6363 30.334 1.45398 3.23051 10.634
767 1 23.0049 28.7883 2.91021 6.99959 6.05722
318 1 24.4729 30.1932 1.47924 4.57899 5.32085
797 1 22.8578 31.6191 2.94193 4.15559 5.0357
347 1 22.9797 31.6742 0.029626 -2.17705 19.6781
799 1 25.9149 31.672 2.85122 1.86365 14.1415
320 1 27.2972 30.1949 1.44325 1.72857 8.78344
769 1 25.9511 28.8592 2.9746 0.656622 5.07974
801 1 28.7662 31.651 2.74476 -2.80924 10.364
349 1 25.8566 31.7055 0.0359627 3.07533 5.09707
322 1 30.1193 30.2477 1.44822 -0.776089 11.2939
803 1 31.6582 31.7462 2.74432 1.91168 11.3294
353 1 31.552 31.732 0.0145432 0.453492 8.2825
805 1 34.5237 31.5797 2.84588 0.921203 5.71069
324 1 33.0733 30.1377 1.28346 3.99371 7.05928
355 1 34.5582 31.5858 0.0316684 2.84519 5.55113
326 1 35.993 30.1461 1.37478 0.353294 7.98632
328 1 38.8867 30.2712 1.53127 -2.68531 8.80908
807 1 37.3342 31.5696 2.86104 -2.47471 10.0876
357 1 37.5086 31.5645 0.0529342 0.887587 9.28722
327 1 37.4516 28.8503 0.0192714 2.07377 13.2081
781 1 43.1382 31.7843 2.91909 -0.775849 7.65273
809 1 40.3304 31.776 2.78871 -6.5442 10.5638
330 1 41.7445 30.3115 1.50185 0.389312 9.30816
329 1 40.3575 28.9328 0.0132141 -2.45443 10.4673
359 1 40.2323 31.7126 0.042231 -2.45268 6.57068
332 1 1.47245 33.0236 1.42284 -1.65751 10.3513
813 1 2.9769 34.6093 2.91596 2.52375 11.1178
811 1 0.090174 34.652 2.76813 4.41385 7.08531
334 1 4.49889 33.0585 1.37156 2.91606 5.79188
815 1 5.79308 34.6227 2.80801 0.0980705 4.97269
336 1 7.31557 33.0766 1.34308 -0.324388 10.5806
338 1 9.96084 33.187 1.45822 0.414743 9.4378
817 1 8.56227 34.6049 2.89195 -4.25949 8.15505
819 1 11.4969 34.5042 2.74229 -0.254876 3.17114
340 1 12.9043 33.1299 1.29303 -6.99987 6.15875
369 1 11.5651 34.6386 0.0416347 -5.16878 7.40561
821 1 14.4941 34.6096 2.80375 -0.683128 12.7968
371 1 14.4227 34.5584 0.0496129 -0.207912 4.83097
342 1 15.7042 32.9974 1.49402 -1.73549 4.82391
373 1 17.2263 34.5515 0.0196713 0.365247 9.28296
823 1 17.3597 34.5535 2.83483 0.228176 11.6032
376 1 21.5856 35.8884 1.55145 -3.63444 7.55555
344 1 18.6828 33.1279 1.44994 -1.66045 8.75653
825 1 20.0905 34.4725 2.90076 -1.11579 4.09541
374 1 18.7456 35.9177 1.40012 -6.24691 4.48992
346 1 21.6353 33.1302 1.48607 -1.57919 2.46423
827 1 22.9925 34.5762 2.97315 -0.619669 11.2331
348 1 24.4345 33.0839 1.49066 1.51918 7.09182
377 1 23.0036 34.5041 0.0807307 -4.80708 12.6333
378 1 24.5133 35.9739 1.50446 3.04721 3.52798
829 1 25.9715 34.4766 2.84764 -5.65085 18.0556
350 1 27.4063 33.1991 1.34717 2.23968 6.11677
831 1 28.8787 34.5434 2.83236 3.35689 7.86126
352 1 30.2141 33.0648 1.42284 -7.65215 9.39414
833 1 31.6178 34.5218 2.90472 5.18464 5.02296
354 1 33.1959 33.1171 1.41541 -0.0775807 6.7935
835 1 34.4479 34.5256 2.92926 1.5192 10.9707
384 1 33.1358 35.8893 1.36471 4.74921 3.82048
385 1 34.6818 34.4714 0.0913638 -0.981512 6.32502
386 1 36.0003 35.9482 1.49032 2.70505 10.7515
356 1 36.0394 33.0413 1.43063 1.51056 14.5881
837 1 37.4591 34.4885 2.89898 -0.643499 10.5434
358 1 38.9579 33.1389 1.47568 -6.27354 18.8888
387 1 37.5025 34.6034 0.0567341 -0.472599 6.98154
360 1 41.7534 33.1446 1.40394 -1.12478 6.72363
839 1 40.3575 34.546 2.95157 2.89432 7.68574
389 1 40.3037 34.5835 0.0931892 -0.0100141 8.32654
362 1 1.49427 36.0487 1.41251 -0.758402 10.2222
843 1 2.91063 37.4394 2.81555 -0.747517 8.92945
392 1 1.45975 38.7683 1.43927 0.741657 8.084
841 1 0.0398195 37.3709 2.895 -0.689312 8.28366
364 1 4.34343 36.0436 1.3421 -2.65638 5.92534
394 1 4.34318 38.9584 1.30901 -0.760014 7.00219
845 1 5.68311 37.4498 2.77708 1.95671 7.16976
366 1 7.24664 35.9832 1.34906 -5.83336 8.73652
368 1 10.0894 35.9817 1.29399 -4.99523 7.41988
847 1 8.60636 37.3962 2.86758 1.77714 10.6417
398 1 10.1202 38.9269 1.32085 0.471081 8.83071
396 1 7.24184 38.8764 1.32998 -1.03892 6.92651
370 1 12.9918 35.9822 1.41674 -4.10228 5.66795
849 1 11.5234 37.4035 2.78528 4.33094 4.72522
400 1 13.047 38.7802 1.33671 -1.5433 6.30654
372 1 15.8367 35.9803 1.4293 -2.50266 13.3722
851 1 14.4557 37.4552 2.82955 -0.907291 4.77789
403 1 17.3291 37.3407 0.0321698 -2.37017 10.8591
402 1 15.8084 38.9318 1.29889 -1.00093 5.26108
853 1 17.3453 37.4128 2.7877 1.29686 2.22148
855 1 20.147 37.3044 2.84349 -5.06246 6.94982
404 1 18.6802 38.8955 1.34238 -0.198429 7.07199
405 1 20.2485 37.4683 0.106763 2.19378 2.37579
406 1 21.6321 38.9343 1.43571 -1.10369 10.887
857 1 22.9194 37.4922 2.77867 0.292176 6.95182
408 1 24.452 38.8563 1.32841 -0.0551919 7.67241
380 1 27.3119 36.064 1.28393 3.40768 3.14994
409 1 25.7743 37.4224 0.00811394 -4.79522 9.69684
859 1 25.9217 37.4414 2.9746 4.61367 6.45591
410 1 27.3641 38.7482 1.26954 -1.37854 11.0872
861 1 28.8048 37.419 2.88742 2.91545 6.05605
382 1 30.2468 36.0714 1.3874 5.26152 5.65779
863 1 31.6981 37.4598 2.9317 3.8768 9.42601
412 1 30.3049 38.8503 1.45224 0.802574 4.6086
414 1 33.0771 38.8165 1.31655 1.87857 7.99901
865 1 34.5388 37.399 2.86067 5.39791 4.62855
388 1 38.7817 36.025 1.54013 4.28434 8.67697
416 1 36.0313 38.883 1.34764 0.293922 6.20413
418 1 38.9334 38.8353 1.47885 2.1585 6.09999
867 1 37.2705 37.4294 2.99711 -1.26122 7.55958
869 1 40.2415 37.4057 2.96063 1.8623 6.46872
420 1 41.7924 38.7328 1.52017 3.80809 5.1067
390 1 41.7299 35.9994 1.42327 2.72715 8.10092
873 1 2.85632 40.252 2.7769 2.37674 4.11347
422 1 1.47224 41.7835 1.43462 -0.665356 11.7017
451 1 0.076982 43.1596 2.87763 0.748321 9.98489
3 1 2.8463 43.149 0.0867981 -4.87 8.90477
424 1 4.32988 41.7537 1.39733 -0.965577 5.29629
875 1 5.79199 40.2446 2.81657 2.11894 3.30475
426 1 7.09654 41.79 1.42781 2.19657 3.55641
428 1 10.1543 41.7617 1.50328 -0.166854 12.0112
877 1 8.57665 40.2229 2.75685 3.24448 7.26347
7 1 8.6976 43.0693 0.0541888 0.351594 6.27499
430 1 13.055 41.7566 1.47824 -2.02061 4.37936
879 1 11.4895 40.3134 2.88546 2.7976 10.3738
429 1 11.479 40.3512 0.00979836 2.87387 8.73652
881 1 14.366 40.1022 2.8816 0.379155 4.94064
461 1 14.4188 43.1609 2.87482 0.131761 9.19718
883 1 17.2322 40.2554 2.83282 -1.63434 5.71347
432 1 15.7168 41.7109 1.43275 1.1316 5.54127
885 1 20.0194 40.3042 2.83266 -1.35207 9.89101
434 1 18.6257 41.7614 1.42542 3.30638 6.36932
436 1 21.4909 41.7025 1.39582 0.01124 10.4146
467 1 22.9502 43.0811 2.70413 -1.63026 7.85384
438 1 24.4621 41.6672 1.46309 -1.63688 6.03034
887 1 23.0185 40.3346 3.0425 -2.28262 15.8946
437 1 23.0233 40.3443 0.0524044 1.48212 6.99099
440 1 27.3516 41.602 1.46387 -2.16892 11.4077
889 1 25.9124 40.2345 2.74618 -1.51884 12.7995
19 1 26.0061 43.0602 0.115333 1.99999 7.264
469 1 25.8619 43.1639 2.87722 -8.27694 23.0277
891 1 28.7946 40.1812 2.81025 0.471624 7.90456
893 1 31.7234 40.2679 2.91957 -2.43859 17.4164
442 1 30.3129 41.6186 1.5002 -2.9334 13.946
473 1 31.5953 43.1126 2.90006 -1.68124 8.77938
21 1 28.7915 43.1429 0.0394369 4.52508 8.41962
443 1 31.6645 40.3902 0.0498573 1.5919 12.143
444 1 33.1828 41.8401 1.46047 -3.63179 9.68405
895 1 34.488 40.2341 2.83542 1.88193 5.90052
445 1 34.6389 40.3393 0.0741056 -1.86168 5.60281
446 1 36.023 41.7257 1.43232 -3.60045 8.82927
448 1 38.8505 41.7598 1.49372 0.928832 10.6383
897 1 37.3952 40.2721 2.84423 3.34169 3.22943
27 1 37.5334 43.0762 0.0180994 0.59394 6.33854
899 1 40.2902 40.2468 2.94319 1.93986 4.47931
450 1 41.6238 41.751 1.52102 2.34882 14.9853
449 1 40.277 40.1632 0.0397155 2.6495 10.3867
871 1 43.0958 40.3393 2.78987 2.91895 3.12103
479 1 40.3177 43.1593 2.97495 -1.14305 13.0017
421 1 43.1472 40.2908 0.00332098 7.29093 3.75093
452 1 1.43653 1.54069 4.27364 -4.07239 15.0003
933 1 2.92851 2.81056 5.82015 -4.64705 17.2998
931 1 0.0408202 2.82577 5.65567 -2.67844 14.3785
903 1 2.95561 0.0337952 5.69187 0.675706 12.7348
454 1 4.51145 1.58973 4.45889 0.708257 5.59085
935 1 5.82885 2.84297 5.98395 -8.86666 18.3055
904 1 4.3271 1.49906 7.13395 -8.03414 19.0622
456 1 7.35762 1.38107 4.3663 -4.00399 12.4929
458 1 10.071 1.34272 4.27861 -2.25207 7.15197
937 1 8.66121 2.76008 5.77239 -5.50087 17.8401
907 1 8.67166 0.0258381 5.76576 -3.49673 8.13608
939 1 11.5511 2.79849 5.72 1.40666 6.86786
460 1 13.0416 1.36165 4.38018 -8.08222 28.1583
909 1 11.6227 0.102215 5.67947 -4.64746 22.1917
941 1 14.3621 2.91246 5.81654 3.4706 10.5485
462 1 15.7653 1.43934 4.50665 0.528602 7.70117
943 1 17.2014 2.87981 5.72332 -1.56696 6.11888
912 1 15.9002 1.28861 7.17536 2.3643 5.57317
464 1 18.6492 1.34795 4.40799 0.617264 12.6252
945 1 20.0006 2.93797 5.7039 1.06381 11.8438
916 1 21.556 1.55515 7.12871 -2.15037 10.3439
914 1 18.7004 1.49855 7.08598 -2.87326 5.79796
466 1 21.6061 1.32725 4.25141 1.93739 10.1515
947 1 22.9955 2.85138 5.67212 3.02883 4.83279
468 1 24.423 1.26164 4.31055 -0.553884 11.3514
918 1 24.441 1.40256 7.13308 -1.93216 9.81514
949 1 25.8909 2.75257 5.71507 1.95874 8.86745
470 1 27.3631 1.48879 4.24629 -1.84507 7.27064
919 1 25.9072 0.0327389 5.72364 -3.11943 14.3616
921 1 28.7098 0.0835163 5.73209 2.57319 6.91738
951 1 28.6714 2.74529 5.81566 -1.57163 6.89938
953 1 31.7595 2.87285 5.61632 -4.4402 6.48187
472 1 30.2647 1.46868 4.3396 -0.101802 10.5077
923 1 31.6247 0.0093007 5.75062 -2.17479 14.9839
922 1 30.3098 1.41869 7.09068 -1.58024 13.0227
474 1 33.1245 1.39327 4.32238 1.11334 7.88168
924 1 33.2537 1.47995 7.07681 1.13026 4.68205
955 1 34.5586 2.96242 5.76076 -6.99372 14.0465
476 1 35.9181 1.57945 4.38675 -0.435452 5.98506
926 1 35.892 1.38634 7.10015 -3.27209 12.3823
957 1 37.3973 2.99282 5.71941 -1.64508 6.4452
478 1 38.785 1.48616 4.42157 -2.92916 13.2975
928 1 38.7902 1.35774 7.09133 2.74836 12.3227
959 1 40.335 2.82811 5.66183 -2.35938 9.45279
480 1 41.6928 1.39847 4.26269 -3.49224 10.1663
930 1 41.7192 1.35535 7.11767 2.37872 6.68758
482 1 1.52798 4.25799 4.32962 -6.12631 15.3218
963 1 2.78993 5.80787 5.76191 5.88537 8.7544
961 1 0.0497378 5.61807 5.68893 1.87802 6.77917
484 1 4.33263 4.31805 4.3866 -1.08654 10.3963
965 1 5.72523 5.69573 5.71514 3.32642 12.7082
514 1 4.33778 7.1942 4.29133 -1.3248 7.99355
486 1 7.41312 4.20436 4.42738 1.38749 12.3197
516 1 7.20141 7.12267 4.35846 4.22456 5.35024
518 1 10.1487 7.19274 4.30559 -0.322074 8.29609
488 1 10.1289 4.36802 4.33722 1.0755 8.10501
967 1 8.73638 5.82008 5.88389 1.09115 5.54891
938 1 10.0908 4.29263 7.18996 0.52692 3.64838
969 1 11.5001 5.84948 5.7674 4.4457 8.81871
490 1 13.0046 4.35238 4.37303 -1.14909 5.78559
940 1 12.8675 4.32488 7.1876 1.64531 9.32497
971 1 14.4368 5.77989 5.75706 1.97674 7.00368
973 1 17.3124 5.76418 5.68623 -6.89348 8.9357
942 1 15.9211 4.3808 7.1065 2.09126 3.04258
492 1 15.8423 4.47111 4.29907 -2.93263 10.5836
975 1 20.1679 5.75561 5.70678 -1.88235 7.86421
494 1 18.6281 4.32306 4.2774 1.15294 9.15273
496 1 21.5039 4.31651 4.25921 1.995 2.42019
526 1 21.5285 7.1541 4.2469 1.3032 7.62598
946 1 21.5609 4.22771 7.17592 4.17255 5.89777
977 1 23.0027 5.63526 5.64263 1.87186 8.54899
498 1 24.5024 4.32976 4.25301 0.252724 6.8881
948 1 24.5584 4.39026 6.97642 1.98234 7.31541
978 1 24.4639 7.13992 7.09773 4.12151 7.52577
500 1 27.4262 4.28972 4.36901 3.47239 6.37762
979 1 25.9026 5.80804 5.66694 -1.15227 17.874
981 1 28.6362 5.8365 5.85166 0.758797 13.0187
502 1 30.2504 4.37248 4.37764 1.09881 10.3232
983 1 31.7393 5.73437 5.72145 -3.00512 11.7377
532 1 30.2712 7.16902 4.36116 0.901609 6.7607
985 1 34.4871 5.78468 5.63402 1.36844 8.80379
504 1 33.1107 4.29723 4.27726 -5.81492 14.0219
954 1 33.0993 4.20806 7.18414 0.472787 8.25525
956 1 35.8681 4.39692 7.19025 -1.15262 15.18
506 1 36.0527 4.33983 4.14319 -1.73264 9.37527