ITEM: TIMESTEP
0
ITEM: NUMBER OF ATOMS
16000
ITEM: BOX BOUNDS pp pp pp
0.0000000000000000e+00 5.7560000000000002e+01
0.0000000000000000e+00 5.7560000000000002e+01
0.0000000000000000e+00 5.7560000000000002e+01
ITEM: ATOMS id type x y z v_sa_hydro v_sa_von
2 1 1.439 0.35975 1.439 1.44675 2.05844
41 1 0 1.79875 0 -225.686 419.23
42 1 1.439 3.23775 1.439 1.44675 2.05844
43 1 2.878 1.77466 0 -84.9795 152.297
841 1 0 1.82284 2.878 -84.9795 152.297
843 1 2.878 1.79875 2.878 2.90852 0.602113
4 1 4.317 0.334329 1.439 1.5054 3.05799
44 1 4.317 3.21233 1.439 1.5054 3.05799
45 1 5.756 1.74806 0 -103.42 180.173
845 1 5.756 1.77184 2.878 2.52867 2.02594
6 1 7.195 0.306109 1.439 1.52158 3.34663
8 1 10.073 0.274852 1.439 1.56804 3.64537
46 1 7.195 3.18411 1.439 1.52158 3.34663
47 1 8.634 1.71874 0 -125.658 214.16
48 1 10.073 3.15285 1.439 1.56804 3.64537
847 1 8.634 1.74179 2.878 2.5611 2.28937
10 1 12.951 0.240382 1.439 1.64367 3.95361
49 1 11.512 1.68654 0 -151.978 254.384
50 1 12.951 3.11838 1.439 1.64367 3.95361
849 1 11.512 1.70833 2.878 2.57854 2.5729
12 1 15.829 0.202629 1.439 1.75043 4.26012
51 1 14.39 1.65137 0 -182.029 300.19
52 1 15.829 3.08063 1.439 1.75043 4.26012
851 1 14.39 1.67128 2.878 2.56744 2.85914
14 1 18.707 0.161687 1.439 1.89432 4.53018
53 1 17.268 1.61329 0 -214.468 349.466
54 1 18.707 3.03969 1.439 1.89432 4.53018
55 1 20.146 1.5725 0 -246.62 398.226
853 1 17.268 1.63057 2.878 2.51873 3.11734
855 1 20.146 1.58638 2.878 2.43287 3.30882
16 1 21.585 0.117867 1.439 2.0818 4.72327
56 1 21.585 2.99587 1.439 2.0818 4.72327
57 1 23.024 1.52942 0 -274.537 440.629
857 1 23.024 1.53916 2.878 2.32592 3.41178
18 1 24.463 0.0717312 1.439 2.29277 4.85225
58 1 24.463 2.94973 1.439 2.29277 4.85225
59 1 25.902 1.48465 0 -293.743 469.93
859 1 25.902 1.48969 2.878 2.23328 3.44266
20 1 27.341 0.0240856 1.439 2.44574 4.93638
21 1 28.78 1.439 0 -300.614 480.454
22 1 30.219 2.85391 1.439 2.44574 4.93638
60 1 27.341 2.90209 1.439 2.44574 4.93638
821 1 28.78 1.439 2.878 2.1961 3.44495
23 1 31.658 1.39335 0 -293.743 469.93
24 1 33.097 2.80627 1.439 2.29277 4.85225
823 1 31.658 1.38831 2.878 2.23328 3.44266
25 1 34.536 1.34858 0 -274.537 440.629
26 1 35.975 2.76013 1.439 2.0818 4.72327
825 1 34.536 1.33884 2.878 2.32592 3.41178
27 1 37.414 1.3055 0 -246.62 398.226
28 1 38.853 2.71631 1.439 1.89432 4.53018
29 1 40.292 1.26471 0 -214.468 349.466
827 1 37.414 1.29162 2.878 2.43287 3.30882
829 1 40.292 1.24743 2.878 2.51873 3.11734
30 1 41.731 2.67537 1.439 1.75043 4.26012
31 1 43.17 1.22663 0 -182.029 300.19
831 1 43.17 1.20672 2.878 2.56744 2.85914
32 1 44.609 2.63762 1.439 1.64367 3.95361
33 1 46.048 1.19146 0 -151.978 254.384
833 1 46.048 1.16967 2.878 2.57854 2.5729
34 1 47.487 2.60315 1.439 1.56804 3.64537
35 1 48.926 1.15926 0 -125.658 214.16
36 1 50.365 2.57189 1.439 1.52179 3.34638
835 1 48.926 1.13621 2.878 2.5611 2.28936
37 1 51.804 1.12994 0 -103.421 180.174
38 1 53.243 2.54367 1.439 1.89815 2.13793
837 1 51.804 1.10616 2.878 2.5276 2.02674
39 1 54.682 1.10334 0 -84.872 151.012
40 1 56.121 2.51825 1.439 -77.01 138.985
839 1 54.682 1.07925 2.878 1.92297 2.04003
81 1 0 4.67675 0 -225.686 419.23
82 1 1.439 6.11575 1.439 1.44675 2.05844
83 1 2.878 4.65266 0 -84.9795 152.297
881 1 0 4.70084 2.878 -84.9795 152.297
883 1 2.878 4.67675 2.878 2.90852 0.602113
84 1 4.317 6.09033 1.439 1.5054 3.05799
85 1 5.756 4.62606 0 -103.42 180.173
885 1 5.756 4.64984 2.878 2.52867 2.02594
86 1 7.195 6.06211 1.439 1.52158 3.34663
87 1 8.634 4.59674 0 -125.658 214.16
88 1 10.073 6.03085 1.439 1.56804 3.64537
887 1 8.634 4.61979 2.878 2.5611 2.28937
89 1 11.512 4.56454 0 -151.978 254.384
90 1 12.951 5.99638 1.439 1.64367 3.95361
889 1 11.512 4.58633 2.878 2.57854 2.5729
91 1 14.39 4.52937 0 -182.029 300.19
92 1 15.829 5.95863 1.439 1.75043 4.26012
891 1 14.39 4.54928 2.878 2.56744 2.85914
93 1 17.268 4.49129 0 -214.468 349.466
94 1 18.707 5.91769 1.439 1.89432 4.53018
95 1 20.146 4.4505 0 -246.62 398.226
893 1 17.268 4.50857 2.878 2.51873 3.11734
895 1 20.146 4.46438 2.878 2.43287 3.30882
96 1 21.585 5.87387 1.439 2.0818 4.72327
97 1 23.024 4.40742 0 -274.537 440.629
897 1 23.024 4.41716 2.878 2.32592 3.41178
98 1 24.463 5.82773 1.439 2.29277 4.85225
99 1 25.902 4.36265 0 -293.743 469.93
899 1 25.902 4.36769 2.878 2.23328 3.44266
61 1 28.78 4.317 0 -300.614 480.454
62 1 30.219 5.73191 1.439 2.44574 4.93638
100 1 27.341 5.78009 1.439 2.44574 4.93638
861 1 28.78 4.317 2.878 2.1961 3.44495
63 1 31.658 4.27135 0 -293.743 469.93
64 1 33.097 5.68427 1.439 2.29277 4.85225
863 1 31.658 4.26631 2.878 2.23328 3.44266
65 1 34.536 4.22658 0 -274.537 440.629
66 1 35.975 5.63813 1.439 2.0818 4.72327
865 1 34.536 4.21684 2.878 2.32592 3.41178
67 1 37.414 4.1835 0 -246.62 398.226
68 1 38.853 5.59431 1.439 1.89432 4.53018
69 1 40.292 4.14271 0 -214.468 349.466
867 1 37.414 4.16962 2.878 2.43287 3.30882
869 1 40.292 4.12543 2.878 2.51873 3.11734
70 1 41.731 5.55337 1.439 1.75043 4.26012
71 1 43.17 4.10463 0 -182.029 300.19
871 1 43.17 4.08472 2.878 2.56744 2.85914
72 1 44.609 5.51562 1.439 1.64367 3.95361
73 1 46.048 4.06946 0 -151.978 254.384
873 1 46.048 4.04767 2.878 2.57854 2.5729
74 1 47.487 5.48115 1.439 1.56804 3.64537
75 1 48.926 4.03726 0 -125.658 214.16
76 1 50.365 5.44989 1.439 1.52179 3.34638
875 1 48.926 4.01421 2.878 2.5611 2.28936
77 1 51.804 4.00794 0 -103.421 180.174
78 1 53.243 5.42167 1.439 1.89815 2.13793
877 1 51.804 3.98416 2.878 2.5276 2.02674
79 1 54.682 3.98134 0 -84.872 151.012
80 1 56.121 5.39625 1.439 -77.01 138.985
879 1 54.682 3.95725 2.878 1.92297 2.04003
121 1 0 7.55475 0 -225.686 419.23
122 1 1.439 8.99375 1.439 1.44675 2.05844
123 1 2.878 7.53066 0 -84.9795 152.297
921 1 0 7.57884 2.878 -84.9795 152.297
923 1 2.878 7.55475 2.878 2.90852 0.602113
124 1 4.317 8.96833 1.439 1.5054 3.05799
125 1 5.756 7.50406 0 -103.42 180.173
925 1 5.756 7.52784 2.878 2.52867 2.02594
126 1 7.195 8.94011 1.439 1.52158 3.34663
127 1 8.634 7.47474 0 -125.658 214.16
128 1 10.073 8.90885 1.439 1.56804 3.64537
927 1 8.634 7.49779 2.878 2.5611 2.28937
129 1 11.512 7.44254 0 -151.978 254.384
130 1 12.951 8.87438 1.439 1.64367 3.95361
929 1 11.512 7.46433 2.878 2.57854 2.5729
131 1 14.39 7.40737 0 -182.029 300.19
132 1 15.829 8.83663 1.439 1.75043 4.26012
931 1 14.39 7.42728 2.878 2.56744 2.85914
133 1 17.268 7.36929 0 -214.468 349.466
134 1 18.707 8.79569 1.439 1.89432 4.53018
135 1 20.146 7.3285 0 -246.62 398.226
933 1 17.268 7.38657 2.878 2.51873 3.11734
935 1 20.146 7.34238 2.878 2.43287 3.30882
136 1 21.585 8.75187 1.439 2.0818 4.72327
137 1 23.024 7.28542 0 -274.537 440.629
937 1 23.024 7.29516 2.878 2.32592 3.41178
138 1 24.463 8.70573 1.439 2.29277 4.85225
139 1 25.902 7.24065 0 -293.743 469.93
179 1 25.902 10.1187 0 -293.743 469.93
939 1 25.902 7.24569 2.878 2.23328 3.44266
979 1 25.902 10.1237 2.878 2.23328 3.44266
101 1 28.78 7.195 0 -300.614 480.454
102 1 30.219 8.60991 1.439 2.44574 4.93638
140 1 27.341 8.65809 1.439 2.44574 4.93638
141 1 28.78 10.073 0 -300.614 480.454
901 1 28.78 7.195 2.878 2.1961 3.44495
941 1 28.78 10.073 2.878 2.1961 3.44495
103 1 31.658 7.14935 0 -293.743 469.93
104 1 33.097 8.56227 1.439 2.29277 4.85225
143 1 31.658 10.0273 0 -293.743 469.93
903 1 31.658 7.14431 2.878 2.23328 3.44266
943 1 31.658 10.0223 2.878 2.23328 3.44266
105 1 34.536 7.10458 0 -274.537 440.629
106 1 35.975 8.51613 1.439 2.0818 4.72327
145 1 34.536 9.98258 0 -274.537 440.629
905 1 34.536 7.09484 2.878 2.32592 3.41178
945 1 34.536 9.97284 2.878 2.32592 3.41178
107 1 37.414 7.0615 0 -246.62 398.226
108 1 38.853 8.47231 1.439 1.89432 4.53018
109 1 40.292 7.02071 0 -214.468 349.466
147 1 37.414 9.9395 0 -246.62 398.226
149 1 40.292 9.89871 0 -214.468 349.466
907 1 37.414 7.04762 2.878 2.43287 3.30882
909 1 40.292 7.00343 2.878 2.51873 3.11734
947 1 37.414 9.92562 2.878 2.43287 3.30882
949 1 40.292 9.88143 2.878 2.51873 3.11734
110 1 41.731 8.43137 1.439 1.75043 4.26012
111 1 43.17 6.98263 0 -182.029 300.19
151 1 43.17 9.86063 0 -182.029 300.19
911 1 43.17 6.96272 2.878 2.56744 2.85914
951 1 43.17 9.84072 2.878 2.56744 2.85914
112 1 44.609 8.39362 1.439 1.64367 3.95361
113 1 46.048 6.94746 0 -151.978 254.384
153 1 46.048 9.82546 0 -151.978 254.384
913 1 46.048 6.92567 2.878 2.57854 2.5729
953 1 46.048 9.80367 2.878 2.57854 2.5729
114 1 47.487 8.35915 1.439 1.56804 3.64537
115 1 48.926 6.91526 0 -125.658 214.16
116 1 50.365 8.32789 1.439 1.52179 3.34638
155 1 48.926 9.79326 0 -125.658 214.16
915 1 48.926 6.89221 2.878 2.5611 2.28936
955 1 48.926 9.77021 2.878 2.5611 2.28936
117 1 51.804 6.88594 0 -103.421 180.174
118 1 53.243 8.29967 1.439 1.89815 2.13793
157 1 51.804 9.76394 0 -103.421 180.174
917 1 51.804 6.86216 2.878 2.5276 2.02674
957 1 51.804 9.74016 2.878 2.5276 2.02674
119 1 54.682 6.85934 0 -84.872 151.012
120 1 56.121 8.27425 1.439 -77.01 138.985
159 1 54.682 9.73734 0 -84.872 151.012
919 1 54.682 6.83525 2.878 1.92297 2.04003
959 1 54.682 9.71325 2.878 1.92297 2.04003
161 1 0 10.4328 0 -225.686 419.23
162 1 1.439 11.8718 1.439 1.44675 2.05844
163 1 2.878 10.4087 0 -84.9795 152.297
201 1 0 13.3108 0 -225.686 419.23
203 1 2.878 13.2867 0 -84.9795 152.297
961 1 0 10.4568 2.878 -84.9795 152.297
963 1 2.878 10.4328 2.878 2.90852 0.602113
1001 1 0 13.3348 2.878 -84.9795 152.297
1003 1 2.878 13.3108 2.878 2.90852 0.602113
164 1 4.317 11.8463 1.439 1.5054 3.05799
165 1 5.756 10.3821 0 -103.42 180.173
205 1 5.756 13.2601 0 -103.42 180.173
965 1 5.756 10.4058 2.878 2.52867 2.02594
1005 1 5.756 13.2838 2.878 2.52867 2.02594
166 1 7.195 11.8181 1.439 1.52158 3.34663
167 1 8.634 10.3527 0 -125.658 214.16
168 1 10.073 11.7869 1.439 1.56804 3.64537
207 1 8.634 13.2307 0 -125.658 214.16
967 1 8.634 10.3758 2.878 2.5611 2.28937
1007 1 8.634 13.2538 2.878 2.5611 2.28937
169 1 11.512 10.3205 0 -151.978 254.384
170 1 12.951 11.7524 1.439 1.64367 3.95361
209 1 11.512 13.1985 0 -151.978 254.384
969 1 11.512 10.3423 2.878 2.57854 2.5729
1009 1 11.512 13.2203 2.878 2.57854 2.5729
171 1 14.39 10.2854 0 -182.029 300.19
172 1 15.829 11.7146 1.439 1.75043 4.26012
211 1 14.39 13.1634 0 -182.029 300.19
971 1 14.39 10.3053 2.878 2.56744 2.85914
1011 1 14.39 13.1833 2.878 2.56744 2.85914
173 1 17.268 10.2473 0 -214.468 349.466
174 1 18.707 11.6737 1.439 1.89432 4.53018
175 1 20.146 10.2065 0 -246.62 398.226
213 1 17.268 13.1253 0 -214.468 349.466
215 1 20.146 13.0845 0 -246.62 398.226
973 1 17.268 10.2646 2.878 2.51873 3.11734
975 1 20.146 10.2204 2.878 2.43287 3.30882
1013 1 17.268 13.1426 2.878 2.51873 3.11734
1015 1 20.146 13.0984 2.878 2.43287 3.30882
176 1 21.585 11.6299 1.439 2.0818 4.72327
177 1 23.024 10.1634 0 -274.537 440.629
217 1 23.024 13.0414 0 -274.537 440.629
977 1 23.024 10.1732 2.878 2.32592 3.41178
1017 1 23.024 13.0512 2.878 2.32592 3.41178
178 1 24.463 11.5837 1.439 2.29277 4.85225
219 1 25.902 12.9967 0 -293.743 469.93
1019 1 25.902 13.0017 2.878 2.23328 3.44266
142 1 30.219 11.4879 1.439 2.44574 4.93638
180 1 27.341 11.5361 1.439 2.44574 4.93638
181 1 28.78 12.951 0 -300.614 480.454
981 1 28.78 12.951 2.878 2.1961 3.44495
144 1 33.097 11.4403 1.439 2.29277 4.85225
183 1 31.658 12.9053 0 -293.743 469.93
983 1 31.658 12.9003 2.878 2.23328 3.44266
146 1 35.975 11.3941 1.439 2.0818 4.72327
185 1 34.536 12.8606 0 -274.537 440.629
985 1 34.536 12.8508 2.878 2.32592 3.41178
148 1 38.853 11.3503 1.439 1.89432 4.53018
187 1 37.414 12.8175 0 -246.62 398.226
189 1 40.292 12.7767 0 -214.468 349.466
987 1 37.414 12.8036 2.878 2.43287 3.30882
989 1 40.292 12.7594 2.878 2.51873 3.11734
150 1 41.731 11.3094 1.439 1.75043 4.26012
191 1 43.17 12.7386 0 -182.029 300.19
991 1 43.17 12.7187 2.878 2.56744 2.85914
152 1 44.609 11.2716 1.439 1.64367 3.95361
193 1 46.048 12.7035 0 -151.978 254.384
993 1 46.048 12.6817 2.878 2.57854 2.5729
154 1 47.487 11.2371 1.439 1.56804 3.64537
156 1 50.365 11.2059 1.439 1.52179 3.34638
195 1 48.926 12.6713 0 -125.658 214.16
995 1 48.926 12.6482 2.878 2.5611 2.28936
158 1 53.243 11.1777 1.439 1.89815 2.13793
197 1 51.804 12.6419 0 -103.421 180.174
997 1 51.804 12.6182 2.878 2.5276 2.02674
160 1 56.121 11.1523 1.439 -77.01 138.985
199 1 54.682 12.6153 0 -84.872 151.012
999 1 54.682 12.5913 2.878 1.92297 2.04003
202 1 1.439 14.7498 1.439 1.44675 2.05844
241 1 0 16.1887 0 -225.686 419.23
243 1 2.878 16.1647 0 -84.9795 152.297
1041 1 0 16.2128 2.878 -84.9795 152.297
1043 1 2.878 16.1887 2.878 2.90852 0.602113
204 1 4.317 14.7243 1.439 1.5054 3.05799
245 1 5.756 16.1381 0 -103.42 180.173
1045 1 5.756 16.1618 2.878 2.52867 2.02594
206 1 7.195 14.6961 1.439 1.52158 3.34663
208 1 10.073 14.6649 1.439 1.56804 3.64537
247 1 8.634 16.1087 0 -125.658 214.16
1047 1 8.634 16.1318 2.878 2.5611 2.28937
210 1 12.951 14.6304 1.439 1.64367 3.95361
249 1 11.512 16.0765 0 -151.978 254.384
1049 1 11.512 16.0983 2.878 2.57854 2.5729
212 1 15.829 14.5926 1.439 1.75043 4.26012
251 1 14.39 16.0414 0 -182.029 300.19
1051 1 14.39 16.0613 2.878 2.56744 2.85914
214 1 18.707 14.5517 1.439 1.89432 4.53018
253 1 17.268 16.0033 0 -214.468 349.466
255 1 20.146 15.9625 0 -246.62 398.226
1053 1 17.268 16.0206 2.878 2.51873 3.11734
1055 1 20.146 15.9764 2.878 2.43287 3.30882
216 1 21.585 14.5079 1.439 2.0818 4.72327
257 1 23.024 15.9194 0 -274.537 440.629
1057 1 23.024 15.9292 2.878 2.32592 3.41178
218 1 24.463 14.4617 1.439 2.29277 4.85225
259 1 25.902 15.8747 0 -293.743 469.93
1059 1 25.902 15.8797 2.878 2.23328 3.44266
182 1 30.219 14.3659 1.439 2.44574 4.93638
220 1 27.341 14.4141 1.439 2.44574 4.93638
221 1 28.78 15.829 0 -300.614 480.454
1021 1 28.78 15.829 2.878 2.1961 3.44495
184 1 33.097 14.3183 1.439 2.29277 4.85225
223 1 31.658 15.7833 0 -293.743 469.93
1023 1 31.658 15.7783 2.878 2.23328 3.44266
186 1 35.975 14.2721 1.439 2.0818 4.72327
225 1 34.536 15.7386 0 -274.537 440.629
1025 1 34.536 15.7288 2.878 2.32592 3.41178
188 1 38.853 14.2283 1.439 1.89432 4.53018
227 1 37.414 15.6955 0 -246.62 398.226
229 1 40.292 15.6547 0 -214.468 349.466
1027 1 37.414 15.6816 2.878 2.43287 3.30882
1029 1 40.292 15.6374 2.878 2.51873 3.11734
190 1 41.731 14.1874 1.439 1.75043 4.26012
231 1 43.17 15.6166 0 -182.029 300.19
1031 1 43.17 15.5967 2.878 2.56744 2.85914
192 1 44.609 14.1496 1.439 1.64367 3.95361
233 1 46.048 15.5815 0 -151.978 254.384
1033 1 46.048 15.5597 2.878 2.57854 2.5729
194 1 47.487 14.1151 1.439 1.56804 3.64537
196 1 50.365 14.0839 1.439 1.52179 3.34638
235 1 48.926 15.5493 0 -125.658 214.16
1035 1 48.926 15.5262 2.878 2.5611 2.28936
198 1 53.243 14.0557 1.439 1.89815 2.13793
237 1 51.804 15.5199 0 -103.421 180.174
1037 1 51.804 15.4962 2.878 2.5276 2.02674
200 1 56.121 14.0303 1.439 -77.01 138.985
239 1 54.682 15.4933 0 -84.872 151.012
240 1 56.121 16.9082 1.439 -77.01 138.985
1039 1 54.682 15.4693 2.878 1.92297 2.04003
242 1 1.439 17.6277 1.439 1.44675 2.05844
281 1 0 19.0667 0 -225.686 419.23
283 1 2.878 19.0427 0 -84.9795 152.297
1081 1 0 19.0908 2.878 -84.9795 152.297
1083 1 2.878 19.0667 2.878 2.90852 0.602113
244 1 4.317 17.6023 1.439 1.5054 3.05799
285 1 5.756 19.0161 0 -103.42 180.173
1085 1 5.756 19.0398 2.878 2.52867 2.02594
246 1 7.195 17.5741 1.439 1.52158 3.34663
248 1 10.073 17.5429 1.439 1.56804 3.64537
287 1 8.634 18.9867 0 -125.658 214.16
1087 1 8.634 19.0098 2.878 2.5611 2.28937
250 1 12.951 17.5084 1.439 1.64367 3.95361
289 1 11.512 18.9545 0 -151.978 254.384
1089 1 11.512 18.9763 2.878 2.57854 2.5729
252 1 15.829 17.4706 1.439 1.75043 4.26012
291 1 14.39 18.9194 0 -182.029 300.19
1091 1 14.39 18.9393 2.878 2.56744 2.85914
254 1 18.707 17.4297 1.439 1.89432 4.53018
293 1 17.268 18.8813 0 -214.468 349.466
294 1 18.707 20.3077 1.439 1.89432 4.53018
295 1 20.146 18.8405 0 -246.62 398.226
1093 1 17.268 18.8986 2.878 2.51873 3.11734
1095 1 20.146 18.8544 2.878 2.43287 3.30882
256 1 21.585 17.3859 1.439 2.0818 4.72327
296 1 21.585 20.2639 1.439 2.0818 4.72327
297 1 23.024 18.7974 0 -274.537 440.629
1097 1 23.024 18.8072 2.878 2.32592 3.41178
258 1 24.463 17.3397 1.439 2.29277 4.85225
298 1 24.463 20.2177 1.439 2.29277 4.85225
299 1 25.902 18.7527 0 -293.743 469.93
1099 1 25.902 18.7577 2.878 2.23328 3.44266
222 1 30.219 17.2439 1.439 2.44574 4.93638
260 1 27.341 17.2921 1.439 2.44574 4.93638
261 1 28.78 18.707 0 -300.614 480.454
262 1 30.219 20.1219 1.439 2.44574 4.93638
300 1 27.341 20.1701 1.439 2.44574 4.93638
1061 1 28.78 18.707 2.878 2.1961 3.44495
224 1 33.097 17.1963 1.439 2.29277 4.85225
263 1 31.658 18.6613 0 -293.743 469.93
264 1 33.097 20.0743 1.439 2.29277 4.85225
1063 1 31.658 18.6563 2.878 2.23328 3.44266
226 1 35.975 17.1501 1.439 2.0818 4.72327
265 1 34.536 18.6166 0 -274.537 440.629
266 1 35.975 20.0281 1.439 2.0818 4.72327
1065 1 34.536 18.6068 2.878 2.32592 3.41178
228 1 38.853 17.1063 1.439 1.89432 4.53018
267 1 37.414 18.5735 0 -246.62 398.226
268 1 38.853 19.9843 1.439 1.89432 4.53018
269 1 40.292 18.5327 0 -214.468 349.466
1067 1 37.414 18.5596 2.878 2.43287 3.30882
1069 1 40.292 18.5154 2.878 2.51873 3.11734
230 1 41.731 17.0654 1.439 1.75043 4.26012
270 1 41.731 19.9434 1.439 1.75043 4.26012
271 1 43.17 18.4946 0 -182.029 300.19
1071 1 43.17 18.4747 2.878 2.56744 2.85914
232 1 44.609 17.0276 1.439 1.64367 3.95361
272 1 44.609 19.9056 1.439 1.64367 3.95361
273 1 46.048 18.4595 0 -151.978 254.384
1073 1 46.048 18.4377 2.878 2.57854 2.5729
234 1 47.487 16.9931 1.439 1.56804 3.64537
236 1 50.365 16.9619 1.439 1.52179 3.34638
274 1 47.487 19.8711 1.439 1.56804 3.64537
275 1 48.926 18.4273 0 -125.658 214.16
276 1 50.365 19.8399 1.439 1.52179 3.34638
1075 1 48.926 18.4042 2.878 2.5611 2.28936
238 1 53.243 16.9337 1.439 1.89815 2.13793
277 1 51.804 18.3979 0 -103.421 180.174
278 1 53.243 19.8117 1.439 1.89815 2.13793
1077 1 51.804 18.3742 2.878 2.5276 2.02674
279 1 54.682 18.3713 0 -84.872 151.012
280 1 56.121 19.7862 1.439 -77.01 138.985
1079 1 54.682 18.3472 2.878 1.92297 2.04003
282 1 1.439 20.5057 1.439 1.44675 2.05844
321 1 0 21.9447 0 -225.686 419.23
322 1 1.439 23.3837 1.439 1.44675 2.05844
323 1 2.878 21.9207 0 -84.9795 152.297
1121 1 0 21.9688 2.878 -84.9795 152.297
1123 1 2.878 21.9447 2.878 2.90852 0.602113
284 1 4.317 20.4803 1.439 1.5054 3.05799
324 1 4.317 23.3583 1.439 1.5054 3.05799
325 1 5.756 21.8941 0 -103.42 180.173
1125 1 5.756 21.9178 2.878 2.52867 2.02594
286 1 7.195 20.4521 1.439 1.52158 3.34663
288 1 10.073 20.4209 1.439 1.56804 3.64537
326 1 7.195 23.3301 1.439 1.52158 3.34663
327 1 8.634 21.8647 0 -125.658 214.16
328 1 10.073 23.2989 1.439 1.56804 3.64537
1127 1 8.634 21.8878 2.878 2.5611 2.28937
290 1 12.951 20.3864 1.439 1.64367 3.95361
329 1 11.512 21.8325 0 -151.978 254.384
330 1 12.951 23.2644 1.439 1.64367 3.95361
1129 1 11.512 21.8543 2.878 2.57854 2.5729
292 1 15.829 20.3486 1.439 1.75043 4.26012
331 1 14.39 21.7974 0 -182.029 300.19
332 1 15.829 23.2266 1.439 1.75043 4.26012
1131 1 14.39 21.8173 2.878 2.56744 2.85914
333 1 17.268 21.7593 0 -214.468 349.466
334 1 18.707 23.1857 1.439 1.89432 4.53018
335 1 20.146 21.7185 0 -246.62 398.226
1133 1 17.268 21.7766 2.878 2.51873 3.11734
1135 1 20.146 21.7324 2.878 2.43287 3.30882
336 1 21.585 23.1419 1.439 2.0818 4.72327
337 1 23.024 21.6754 0 -274.537 440.629
1137 1 23.024 21.6852 2.878 2.32592 3.41178
338 1 24.463 23.0957 1.439 2.29277 4.85225
339 1 25.902 21.6307 0 -293.743 469.93
1139 1 25.902 21.6357 2.878 2.23328 3.44266
301 1 28.78 21.585 0 -300.614 480.454
302 1 30.219 22.9999 1.439 2.44574 4.93638
340 1 27.341 23.0481 1.439 2.44574 4.93638
1101 1 28.78 21.585 2.878 2.1961 3.44495
303 1 31.658 21.5393 0 -293.743 469.93
304 1 33.097 22.9523 1.439 2.29277 4.85225
1103 1 31.658 21.5343 2.878 2.23328 3.44266
305 1 34.536 21.4946 0 -274.537 440.629
306 1 35.975 22.9061 1.439 2.0818 4.72327
1105 1 34.536 21.4848 2.878 2.32592 3.41178
307 1 37.414 21.4515 0 -246.62 398.226
308 1 38.853 22.8623 1.439 1.89432 4.53018
309 1 40.292 21.4107 0 -214.468 349.466
1107 1 37.414 21.4376 2.878 2.43287 3.30882
1109 1 40.292 21.3934 2.878 2.51873 3.11734
310 1 41.731 22.8214 1.439 1.75043 4.26012
311 1 43.17 21.3726 0 -182.029 300.19
1111 1 43.17 21.3527 2.878 2.56744 2.85914
312 1 44.609 22.7836 1.439 1.64367 3.95361
313 1 46.048 21.3375 0 -151.978 254.384
1113 1 46.048 21.3157 2.878 2.57854 2.5729
314 1 47.487 22.7491 1.439 1.56804 3.64537
315 1 48.926 21.3053 0 -125.658 214.16
316 1 50.365 22.7179 1.439 1.52179 3.34638
1115 1 48.926 21.2822 2.878 2.5611 2.28936
317 1 51.804 21.2759 0 -103.421 180.174
318 1 53.243 22.6897 1.439 1.89815 2.13793
1117 1 51.804 21.2522 2.878 2.5276 2.02674
319 1 54.682 21.2493 0 -84.872 151.012
320 1 56.121 22.6642 1.439 -77.01 138.985
1119 1 54.682 21.2252 2.878 1.92297 2.04003
361 1 0 24.8227 0 -225.686 419.23
362 1 1.439 26.2617 1.439 1.44675 2.05844
363 1 2.878 24.7987 0 -84.9795 152.297
1161 1 0 24.8468 2.878 -84.9795 152.297
1163 1 2.878 24.8227 2.878 2.90852 0.602113
364 1 4.317 26.2363 1.439 1.5054 3.05799
365 1 5.756 24.7721 0 -103.42 180.173
1165 1 5.756 24.7958 2.878 2.52867 2.02594
366 1 7.195 26.2081 1.439 1.52158 3.34663
367 1 8.634 24.7427 0 -125.658 214.16
368 1 10.073 26.1769 1.439 1.56804 3.64537
1167 1 8.634 24.7658 2.878 2.5611 2.28937
369 1 11.512 24.7105 0 -151.978 254.384
370 1 12.951 26.1424 1.439 1.64367 3.95361
1169 1 11.512 24.7323 2.878 2.57854 2.5729
371 1 14.39 24.6754 0 -182.029 300.19
372 1 15.829 26.1046 1.439 1.75043 4.26012
1171 1 14.39 24.6953 2.878 2.56744 2.85914
373 1 17.268 24.6373 0 -214.468 349.466
374 1 18.707 26.0637 1.439 1.89432 4.53018
375 1 20.146 24.5965 0 -246.62 398.226
1173 1 17.268 24.6546 2.878 2.51873 3.11734
1175 1 20.146 24.6104 2.878 2.43287 3.30882
376 1 21.585 26.0199 1.439 2.0818 4.72327
377 1 23.024 24.5534 0 -274.537 440.629
1177 1 23.024 24.5632 2.878 2.32592 3.41178
378 1 24.463 25.9737 1.439 2.29277 4.85225
379 1 25.902 24.5087 0 -293.743 469.93
1179 1 25.902 24.5137 2.878 2.23328 3.44266
341 1 28.78 24.463 0 -300.614 480.454
342 1 30.219 25.8779 1.439 2.44574 4.93638
380 1 27.341 25.9261 1.439 2.44574 4.93638
1141 1 28.78 24.463 2.878 2.1961 3.44495
343 1 31.658 24.4173 0 -293.743 469.93
344 1 33.097 25.8303 1.439 2.29277 4.85225
1143 1 31.658 24.4123 2.878 2.23328 3.44266
345 1 34.536 24.3726 0 -274.537 440.629
346 1 35.975 25.7841 1.439 2.0818 4.72327
1145 1 34.536 24.3628 2.878 2.32592 3.41178
347 1 37.414 24.3295 0 -246.62 398.226
348 1 38.853 25.7403 1.439 1.89432 4.53018
349 1 40.292 24.2887 0 -214.468 349.466
1147 1 37.414 24.3156 2.878 2.43287 3.30882
1149 1 40.292 24.2714 2.878 2.51873 3.11734
350 1 41.731 25.6994 1.439 1.75043 4.26012
351 1 43.17 24.2506 0 -182.029 300.19
1151 1 43.17 24.2307 2.878 2.56744 2.85914
352 1 44.609 25.6616 1.439 1.64367 3.95361
353 1 46.048 24.2155 0 -151.978 254.384
1153 1 46.048 24.1937 2.878 2.57854 2.5729
1193 1 46.048 27.0717 2.878 2.57854 2.5729
354 1 47.487 25.6271 1.439 1.56804 3.64537
355 1 48.926 24.1833 0 -125.658 214.16
356 1 50.365 25.5959 1.439 1.52179 3.34638
395 1 48.926 27.0613 0 -125.658 214.16
1155 1 48.926 24.1602 2.878 2.5611 2.28936
1195 1 48.926 27.0382 2.878 2.5611 2.28936
357 1 51.804 24.1539 0 -103.421 180.174
358 1 53.243 25.5677 1.439 1.89815 2.13793
397 1 51.804 27.0319 0 -103.421 180.174
1157 1 51.804 24.1302 2.878 2.5276 2.02674
1197 1 51.804 27.0082 2.878 2.5276 2.02674
359 1 54.682 24.1273 0 -84.872 151.012
360 1 56.121 25.5422 1.439 -77.01 138.985
399 1 54.682 27.0053 0 -84.872 151.012
1159 1 54.682 24.1032 2.878 1.92297 2.04003
1199 1 54.682 26.9812 2.878 1.92297 2.04003
401 1 0 27.7007 0 -225.686 419.23
402 1 1.439 29.1397 1.439 1.44675 2.05844
403 1 2.878 27.6767 0 -84.9795 152.297
1201 1 0 27.7248 2.878 -84.9795 152.297
1203 1 2.878 27.7007 2.878 2.90852 0.602113
404 1 4.317 29.1143 1.439 1.5054 3.05799
405 1 5.756 27.6501 0 -103.42 180.173
1205 1 5.756 27.6738 2.878 2.52867 2.02594
406 1 7.195 29.0861 1.439 1.52158 3.34663
407 1 8.634 27.6207 0 -125.658 214.16
408 1 10.073 29.0549 1.439 1.56804 3.64537
1207 1 8.634 27.6438 2.878 2.5611 2.28937
409 1 11.512 27.5885 0 -151.978 254.384
410 1 12.951 29.0204 1.439 1.64367 3.95361
449 1 11.512 30.4665 0 -151.978 254.384
1209 1 11.512 27.6103 2.878 2.57854 2.5729
411 1 14.39 27.5534 0 -182.029 300.19
412 1 15.829 28.9826 1.439 1.75043 4.26012
451 1 14.39 30.4314 0 -182.029 300.19
1211 1 14.39 27.5733 2.878 2.56744 2.85914
1251 1 14.39 30.4513 2.878 2.56744 2.85914
413 1 17.268 27.5153 0 -214.468 349.466
414 1 18.707 28.9417 1.439 1.89432 4.53018
415 1 20.146 27.4745 0 -246.62 398.226
453 1 17.268 30.3933 0 -214.468 349.466
455 1 20.146 30.3525 0 -246.62 398.226
1213 1 17.268 27.5326 2.878 2.51873 3.11734
1215 1 20.146 27.4884 2.878 2.43287 3.30882
1253 1 17.268 30.4106 2.878 2.51873 3.11734
1255 1 20.146 30.3664 2.878 2.43287 3.30882
416 1 21.585 28.8979 1.439 2.0818 4.72327
417 1 23.024 27.4314 0 -274.537 440.629
457 1 23.024 30.3094 0 -274.537 440.629
1217 1 23.024 27.4412 2.878 2.32592 3.41178
1257 1 23.024 30.3192 2.878 2.32592 3.41178
418 1 24.463 28.8517 1.439 2.29277 4.85225
419 1 25.902 27.3867 0 -293.743 469.93
459 1 25.902 30.2647 0 -293.743 469.93
1219 1 25.902 27.3917 2.878 2.23328 3.44266
1259 1 25.902 30.2697 2.878 2.23328 3.44266
381 1 28.78 27.341 0 -300.614 480.454
382 1 30.219 28.7559 1.439 2.44574 4.93638
420 1 27.341 28.8041 1.439 2.44574 4.93638
421 1 28.78 30.219 0 -300.614 480.454
1181 1 28.78 27.341 2.878 2.1961 3.44495
1221 1 28.78 30.219 2.878 2.1961 3.44495
383 1 31.658 27.2953 0 -293.743 469.93
384 1 33.097 28.7083 1.439 2.29277 4.85225
423 1 31.658 30.1733 0 -293.743 469.93
1183 1 31.658 27.2903 2.878 2.23328 3.44266
1223 1 31.658 30.1683 2.878 2.23328 3.44266
385 1 34.536 27.2506 0 -274.537 440.629
386 1 35.975 28.6621 1.439 2.0818 4.72327
425 1 34.536 30.1286 0 -274.537 440.629
1185 1 34.536 27.2408 2.878 2.32592 3.41178
1225 1 34.536 30.1188 2.878 2.32592 3.41178
387 1 37.414 27.2075 0 -246.62 398.226
388 1 38.853 28.6183 1.439 1.89432 4.53018
389 1 40.292 27.1667 0 -214.468 349.466
427 1 37.414 30.0855 0 -246.62 398.226
429 1 40.292 30.0447 0 -214.468 349.466
1187 1 37.414 27.1936 2.878 2.43287 3.30882
1189 1 40.292 27.1494 2.878 2.51873 3.11734
1227 1 37.414 30.0716 2.878 2.43287 3.30882
1229 1 40.292 30.0274 2.878 2.51873 3.11734
390 1 41.731 28.5774 1.439 1.75043 4.26012
391 1 43.17 27.1286 0 -182.029 300.19
431 1 43.17 30.0066 0 -182.029 300.19
1191 1 43.17 27.1087 2.878 2.56744 2.85914
1231 1 43.17 29.9867 2.878 2.56744 2.85914
392 1 44.609 28.5396 1.439 1.64367 3.95361
393 1 46.048 27.0935 0 -151.978 254.384
433 1 46.048 29.9715 0 -151.978 254.384
1233 1 46.048 29.9497 2.878 2.57854 2.5729
394 1 47.487 28.5051 1.439 1.56804 3.64537
396 1 50.365 28.4739 1.439 1.52179 3.34638
435 1 48.926 29.9393 0 -125.658 214.16
1235 1 48.926 29.9162 2.878 2.5611 2.28936
398 1 53.243 28.4457 1.439 1.89815 2.13793
437 1 51.804 29.9099 0 -103.421 180.174
1237 1 51.804 29.8862 2.878 2.5276 2.02674
400 1 56.121 28.4202 1.439 -77.01 138.985
439 1 54.682 29.8833 0 -84.872 151.012
1239 1 54.682 29.8592 2.878 1.92297 2.04003
441 1 0 30.5787 0 -225.686 419.23
442 1 1.439 32.0177 1.439 1.44675 2.05844
443 1 2.878 30.5547 0 -84.9795 152.297
481 1 0 33.4567 0 -225.686 419.23
483 1 2.878 33.4327 0 -84.9795 152.297
1241 1 0 30.6028 2.878 -84.9795 152.297
1243 1 2.878 30.5787 2.878 2.90852 0.602113
1281 1 0 33.4808 2.878 -84.9795 152.297
1283 1 2.878 33.4567 2.878 2.90852 0.602113
444 1 4.317 31.9923 1.439 1.5054 3.05799
445 1 5.756 30.5281 0 -103.42 180.173
485 1 5.756 33.4061 0 -103.42 180.173
1245 1 5.756 30.5518 2.878 2.52867 2.02594
1285 1 5.756 33.4298 2.878 2.52867 2.02594
446 1 7.195 31.9641 1.439 1.52158 3.34663
447 1 8.634 30.4987 0 -125.658 214.16
448 1 10.073 31.9329 1.439 1.56804 3.64537
487 1 8.634 33.3767 0 -125.658 214.16
1247 1 8.634 30.5218 2.878 2.5611 2.28937
1287 1 8.634 33.3998 2.878 2.5611 2.28937
450 1 12.951 31.8984 1.439 1.64367 3.95361
489 1 11.512 33.3445 0 -151.978 254.384
1249 1 11.512 30.4883 2.878 2.57854 2.5729
1289 1 11.512 33.3663 2.878 2.57854 2.5729
452 1 15.829 31.8606 1.439 1.75043 4.26012
491 1 14.39 33.3094 0 -182.029 300.19
1291 1 14.39 33.3293 2.878 2.56744 2.85914
454 1 18.707 31.8197 1.439 1.89432 4.53018
493 1 17.268 33.2713 0 -214.468 349.466
495 1 20.146 33.2305 0 -246.62 398.226
1293 1 17.268 33.2886 2.878 2.51873 3.11734
1295 1 20.146 33.2444 2.878 2.43287 3.30882
456 1 21.585 31.7759 1.439 2.0818 4.72327
497 1 23.024 33.1874 0 -274.537 440.629
1297 1 23.024 33.1972 2.878 2.32592 3.41178
458 1 24.463 31.7297 1.439 2.29277 4.85225
499 1 25.902 33.1427 0 -293.743 469.93
1299 1 25.902 33.1477 2.878 2.23328 3.44266
422 1 30.219 31.6339 1.439 2.44574 4.93638
460 1 27.341 31.6821 1.439 2.44574 4.93638
461 1 28.78 33.097 0 -300.614 480.454
1261 1 28.78 33.097 2.878 2.1961 3.44495
424 1 33.097 31.5863 1.439 2.29277 4.85225
463 1 31.658 33.0513 0 -293.743 469.93
1263 1 31.658 33.0463 2.878 2.23328 3.44266
426 1 35.975 31.5401 1.439 2.0818 4.72327
465 1 34.536 33.0066 0 -274.537 440.629
1265 1 34.536 32.9968 2.878 2.32592 3.41178
428 1 38.853 31.4963 1.439 1.89432 4.53018
467 1 37.414 32.9635 0 -246.62 398.226
469 1 40.292 32.9227 0 -214.468 349.466
1267 1 37.414 32.9496 2.878 2.43287 3.30882
1269 1 40.292 32.9054 2.878 2.51873 3.11734
430 1 41.731 31.4554 1.439 1.75043 4.26012
471 1 43.17 32.8846 0 -182.029 300.19
1271 1 43.17 32.8647 2.878 2.56744 2.85914
432 1 44.609 31.4176 1.439 1.64367 3.95361
473 1 46.048 32.8495 0 -151.978 254.384
1273 1 46.048 32.8277 2.878 2.57854 2.5729
434 1 47.487 31.3831 1.439 1.56804 3.64537
436 1 50.365 31.3519 1.439 1.52179 3.34638
475 1 48.926 32.8173 0 -125.658 214.16
1275 1 48.926 32.7942 2.878 2.5611 2.28936
438 1 53.243 31.3237 1.439 1.89815 2.13793
477 1 51.804 32.7879 0 -103.421 180.174
1277 1 51.804 32.7642 2.878 2.5276 2.02674
440 1 56.121 31.2982 1.439 -77.01 138.985
479 1 54.682 32.7613 0 -84.872 151.012
1279 1 54.682 32.7373 2.878 1.92297 2.04003
482 1 1.439 34.8957 1.439 1.44675 2.05844
521 1 0 36.3347 0 -225.686 419.23
523 1 2.878 36.3107 0 -84.9795 152.297
1321 1 0 36.3588 2.878 -84.9795 152.297
1323 1 2.878 36.3347 2.878 2.90852 0.602113
484 1 4.317 34.8703 1.439 1.5054 3.05799
525 1 5.756 36.2841 0 -103.42 180.173
1325 1 5.756 36.3078 2.878 2.52867 2.02594
486 1 7.195 34.8421 1.439 1.52158 3.34663
488 1 10.073 34.8109 1.439 1.56804 3.64537