# LAMMPS input script generated by PyLammps
# Initialise simulation
atom_style     atomic
units          metal
read_data     /home/winniebird/sfarrelly2024/test/test_projects/test_project_1/project/data/output/after_relax.data
Reading data file ...
  orthogonal box = (0 0 0) to (12.444875 12.497755 12.459783)
  1 by 1 by 1 MPI processor grid
  reading atoms ...
  128 atoms
  reading velocities ...
  128 velocities
  read_data CPU = 0.001 seconds
# 5 elements of HEA: Ni Co Ti Zr Hf specorder
mass           1 58.693
mass           2 58.933
mass           3 47.867
mass           4 91.224
mass           5 178.49
# Reading snap potential files
pair_style     snap
pair_coeff     * * /home/winniebird/sfarrelly2024/test/sez26_package/scripts/HEA_var1.snapcoeff /home/winniebird/sfarrelly2024/test/sez26_package/scripts/HEA_var1.snapparam Ni Co Ti Zr Hf
SNAP Element = Ni, Radius 1.805, Weight 0.43
SNAP Element = Co, Radius 1.81, Weight 0.48
SNAP Element = Ti, Radius 2.094, Weight 0.36
SNAP Element = Zr, Radius 2.28, Weight 0.35
SNAP Element = Hf, Radius 2.313, Weight 0.33
SNAP keyword rcutfac 1.0
SNAP keyword twojmax 8
SNAP keyword rfac0 0.99363
SNAP keyword rmin0 0.0
SNAP keyword bzeroflag 0
SNAP keyword wselfallflag 0
SNAP keyword chemflag 0
SNAP keyword bnormflag 0
SNAP keyword switchinnerflag 0
SNAP keyword quadraticflag 0
# Setup standard output
variable       avg_lxyz equal (lx+ly+lz)/3.0
thermo_style   custom step temp pe pxx pyy pzz density
thermo         100
# Set up and run MD in NPT ensemble
timestep       0.001
neighbor       1.0 bin
neigh_modify   every 5 delay 0 check yes
reset_timestep 0
dump		    1 all custom 1000 /home/winniebird/sfarrelly2024/test/test_projects/test_project_1/project/data/output/md_npt_dump.cfg id type x y z
fix		    1 all npt temp 300.0 300.0 0.1 aniso 0 0 1.0
fix		    avg all ave/time 10 100 1000 c_thermo_temp v_avg_lxyz
run		    1000
Neighbor list info ...
  update: every = 5 steps, delay = 0 steps, check = yes
  max neighbors/atom: 2000, page size: 100000
  master list distance cutoff = 5.626
  ghost atom cutoff = 5.626
  binsize = 2.813, bins = 5 5 5
  1 neighbor lists, perpetual/occasional/extra = 1 0 0
  (1) pair snap, perpetual
      attributes: full, newton on
      pair build: full/bin/atomonly
      stencil: full/bin/3d
      bin: standard
Per MPI rank memory allocation (min/avg/max) = 3.599 | 3.599 | 3.599 Mbytes
   Step          Temp          PotEng          Pxx            Pyy            Pzz          Density    
         0   286.03363     -1001.7327      512.47036      664.71549     -1652.0044      8.9809625    
       100   279.23802     -1001.3438      2745.1264      1763.5779      1148.1879      8.9815259    
       200   304.31097     -1000.906       484.5661       1440.2124      913.83766      8.967144     
       300   315.0996      -1001.0716     -3642.8764     -2536.594       527.10571      8.962063     
       400   331.21933     -1001.6529      1098.321      -1742.6311     -1813.7852      8.9673359    
       500   281.80057     -1001.2047      611.31704      396.19225     -3813.8186      8.9672206    
       600   316.84242     -1001.4878      3243.8272      195.08218      2321.2057      8.9985218    
       700   334.40798     -1000.7527     -9377.9902     -6242.5046      3535.3827      8.9401877    
       800   339.37342     -1000.7277      4143.7223      6828.8508     -555.0331       8.9607527    
       900   301.34642     -1000.884       7261.3995      6531.2003      2475.5422      8.9944946    
      1000   289.35633     -1001.226      -9132.4681     -12456.146     -9231.6233      8.9137317    
Loop time of 21.0151 on 1 procs for 1000 steps with 128 atoms

Performance: 4.111 ns/day, 5.838 hours/ns, 47.585 timesteps/s, 6.091 katom-step/s
100.0% CPU use with 1 MPI tasks x no OpenMP threads

MPI task timing breakdown:
Section |  min time  |  avg time  |  max time  |%varavg| %total
---------------------------------------------------------------
Pair    | 21.004     | 21.004     | 21.004     |   0.0 | 99.95
Neigh   | 0.0027502  | 0.0027502  | 0.0027502  |   0.0 |  0.01
Comm    | 0.0020672  | 0.0020672  | 0.0020672  |   0.0 |  0.01
Output  | 0.00028848 | 0.00028848 | 0.00028848 |   0.0 |  0.00
Modify  | 0.0052887  | 0.0052887  | 0.0052887  |   0.0 |  0.03
Other   |            | 0.0006021  |            |       |  0.00

Nlocal:            128 ave         128 max         128 min
Histogram: 1 0 0 0 0 0 0 0 0 0
Nghost:            727 ave         727 max         727 min
Histogram: 1 0 0 0 0 0 0 0 0 0
Neighs:              0 ave           0 max           0 min
Histogram: 1 0 0 0 0 0 0 0 0 0
FullNghs:         4194 ave        4194 max        4194 min
Histogram: 1 0 0 0 0 0 0 0 0 0

Total # of neighbors = 4194
Ave neighs/atom = 32.765625
Neighbor list builds = 13
Dangerous builds = 0
unfix		    1
variable       avg_T equal f_avg[1]
variable       L equal f_avg[2]
variable       L0 equal ${L}
variable       L0 equal 12.4737022020026
print          "Temp Strain" file /home/winniebird/sfarrelly2024/test/test_projects/test_project_1/project/data/output/Record_thermal_exp.txt
Temp Strain
print          "${avg_T}    0.0" append Record_thermal_exp.txt
307.81134660704    0.0
unfix          avg
variable	    n loop 3
label          heat
variable       t equal 300.0+${n}*50
variable       t equal 300.0+1*50
fix            1 all npt temp ${t} ${t} 0.1 aniso 0 0 1.0
fix            1 all npt temp 350 ${t} 0.1 aniso 0 0 1.0
fix            1 all npt temp 350 350 0.1 aniso 0 0 1.0
fix		    avg all ave/time 10 100 1000 c_thermo_temp v_avg_lxyz
run		    1000
Per MPI rank memory allocation (min/avg/max) = 4.863 | 4.863 | 4.863 Mbytes
   Step          Temp          PotEng          Pxx            Pyy            Pzz          Density    
      1000   289.35633     -1001.226      -9132.4681     -12456.146     -9231.6233      8.9137317    
      1100   310.61534     -1000.7747      8794.3023      9129.0857      7178.7308      9.0118135    
      1200   309.28608     -1000.2098     -2197.0269      2109.9764     -6607.2551      8.9418782    
      1300   383.15995     -1000.7634     -4024.0845     -8113.2524      2590.9791      8.9388224    
      1400   367.80519     -1000.2082      4033.9216      2970.0832      1807.4639      8.9867786    
      1500   347.9923      -999.80648     -11829.897     -8831.1342     -10267.077      8.881517     
      1600   374.29807     -1000.3624      14247.179      18837.388      14283.443      9.0372711    
      1700   319.78787     -1000.3249     -13555.242     -12436.63      -10899.094      8.8853038    
      1800   341.86699     -1001.0201      5778.3719      2220.23        330.15895      9.0010232    
      1900   348.44982     -1000.6007      3580.628      -1512.1242      5281.6333      8.9718291    
      2000   393.62918     -1000.4056     -12555.558     -9697.7768     -10223.341      8.8903426    
Loop time of 21.0181 on 1 procs for 1000 steps with 128 atoms

Performance: 4.111 ns/day, 5.838 hours/ns, 47.578 timesteps/s, 6.090 katom-step/s
100.0% CPU use with 1 MPI tasks x no OpenMP threads

MPI task timing breakdown:
Section |  min time  |  avg time  |  max time  |%varavg| %total
---------------------------------------------------------------
Pair    | 21.007     | 21.007     | 21.007     |   0.0 | 99.95
Neigh   | 0.0026957  | 0.0026957  | 0.0026957  |   0.0 |  0.01
Comm    | 0.0020667  | 0.0020667  | 0.0020667  |   0.0 |  0.01
Output  | 0.00026983 | 0.00026983 | 0.00026983 |   0.0 |  0.00
Modify  | 0.0053164  | 0.0053164  | 0.0053164  |   0.0 |  0.03
Other   |            | 0.0006021  |            |       |  0.00

Nlocal:            128 ave         128 max         128 min
Histogram: 1 0 0 0 0 0 0 0 0 0
Nghost:            727 ave         727 max         727 min
Histogram: 1 0 0 0 0 0 0 0 0 0
Neighs:              0 ave           0 max           0 min
Histogram: 1 0 0 0 0 0 0 0 0 0
FullNghs:         4332 ave        4332 max        4332 min
Histogram: 1 0 0 0 0 0 0 0 0 0

Total # of neighbors = 4332
Ave neighs/atom = 33.84375
Neighbor list builds = 13
Dangerous builds = 0
unfix		    1
variable       avg_T equal f_avg[1]
variable       L equal f_avg[2]/${L0}-1.0
variable       L equal f_avg[2]/12.4737022020026-1.0
print          "${avg_T}    ${strain}" append /home/winniebird/sfarrelly2024/test/test_projects/test_project_1/project/data/output/Record_thermal_exp.txt
ERROR on proc 0: Substitution for illegal variable strain (../input.cpp:651)
Last command: ${avg_T
