/home/sez26/TIGP-IIP/HEA_compression/LMP_Files/Var2/110/HEA_II.lmp (written by ASE) 

3920 	 atoms 
5  atom types
0.0      61.804526789999997  xlo xhi
0.0      30.902263390000002  ylo yhi
0.0      31.216000000000001  zlo zhi


Atoms 

     1   2                       0                       0                       0
     2   1              2.20730453              2.20730453                       0
     3   1      4.4146090600000001                       0                       0
     4   2      6.6219135800000002              2.20730453                       0
     5   1      8.8292181099999993                       0                       0
     6   2      11.036522639999999              2.20730453                       0
     7   1      13.243827169999999                       0                       0
     8   1      15.451131699999999              2.20730453                       0
     9   2             17.65843623                       0                       0
    10   2      19.865740750000001              2.20730453                       0
    11   2      22.073045279999999                       0                       0
    12   2      24.280349810000001              2.20730453                       0
    13   1      26.487654339999999                       0                       0
    14   2      28.694958870000001              2.20730453                       0
    15   1      30.902263390000002                       0                       0
    16   2      33.109567920000003              2.20730453                       0
    17   1      35.316872449999998                       0                       0
    18   2             37.52417698              2.20730453                       0
    19   1      39.731481510000002                       0                       0
    20   2      41.938786030000003              2.20730453                       0
    21   2      44.146090559999998                       0                       0
    22   1      46.353395089999999              2.20730453                       0
    23   1      48.560699620000001                       0                       0
    24   2      50.768004150000003              2.20730453                       0
    25   1      52.975308679999998                       0                       0
    26   2      55.182613199999999              2.20730453                       0
    27   1      57.389917730000001                       0                       0
    28   1      59.597222260000002              2.20730453                       0
    29   2                       0      4.4146090600000001                       0
    30   1              2.20730453      6.6219135800000002                       0
    31   1      4.4146090600000001      4.4146090600000001                       0
    32   1      6.6219135800000002      6.6219135800000002                       0
    33   1      8.8292181099999993      4.4146090600000001                       0
    34   2      11.036522639999999      6.6219135800000002                       0
    35   1      13.243827169999999      4.4146090600000001                       0
    36   2      15.451131699999999      6.6219135800000002                       0
    37   1             17.65843623      4.4146090600000001                       0
    38   1      19.865740750000001      6.6219135800000002                       0
    39   1      22.073045279999999      4.4146090600000001                       0
    40   1      24.280349810000001      6.6219135800000002                       0
    41   2      26.487654339999999      4.4146090600000001                       0
    42   1      28.694958870000001      6.6219135800000002                       0
    43   1      30.902263390000002      4.4146090600000001                       0
    44   2      33.109567920000003      6.6219135800000002                       0
    45   2      35.316872449999998      4.4146090600000001                       0
    46   2             37.52417698      6.6219135800000002                       0
    47   2      39.731481510000002      4.4146090600000001                       0
    48   2      41.938786030000003      6.6219135800000002                       0
    49   2      44.146090559999998      4.4146090600000001                       0
    50   1      46.353395089999999      6.6219135800000002                       0
    51   2      48.560699620000001      4.4146090600000001                       0
    52   2      50.768004150000003      6.6219135800000002                       0
    53   2      52.975308679999998      4.4146090600000001                       0
    54   2      55.182613199999999      6.6219135800000002                       0
    55   2      57.389917730000001      4.4146090600000001                       0
    56   2      59.597222260000002      6.6219135800000002                       0
    57   1                       0      8.8292181099999993                       0
    58   2              2.20730453      11.036522639999999                       0
    59   2      4.4146090600000001      8.8292181099999993                       0
    60   2      6.6219135800000002      11.036522639999999                       0
    61   2      8.8292181099999993      8.8292181099999993                       0
    62   1      11.036522639999999      11.036522639999999                       0
    63   2      13.243827169999999      8.8292181099999993                       0
    64   1      15.451131699999999      11.036522639999999                       0
    65   2             17.65843623      8.8292181099999993                       0
    66   2      19.865740750000001      11.036522639999999                       0
    67   1      22.073045279999999      8.8292181099999993                       0
    68   1      24.280349810000001      11.036522639999999                       0
    69   2      26.487654339999999      8.8292181099999993                       0
    70   2      28.694958870000001      11.036522639999999                       0
    71   2      30.902263390000002      8.8292181099999993                       0
    72   2      33.109567920000003      11.036522639999999                       0
    73   1      35.316872449999998      8.8292181099999993                       0
    74   1             37.52417698      11.036522639999999                       0
    75   1      39.731481510000002      8.8292181099999993                       0
    76   2      41.938786030000003      11.036522639999999                       0
    77   2      44.146090559999998      8.8292181099999993                       0
    78   1      46.353395089999999      11.036522639999999                       0
    79   2      48.560699620000001      8.8292181099999993                       0
    80   2      50.768004150000003      11.036522639999999                       0
    81   1      52.975308679999998      8.8292181099999993                       0
    82   1      55.182613199999999      11.036522639999999                       0
    83   1      57.389917730000001      8.8292181099999993                       0
    84   2      59.597222260000002      11.036522639999999                       0
    85   1                       0      13.243827169999999                       0
    86   1              2.20730453      15.451131699999999                       0
    87   1      4.4146090600000001      13.243827169999999                       0
    88   1      6.6219135800000002      15.451131699999999                       0
    89   1      8.8292181099999993      13.243827169999999                       0
    90   2      11.036522639999999      15.451131699999999                       0
    91   2      13.243827169999999      13.243827169999999                       0
    92   2      15.451131699999999      15.451131699999999                       0
    93   2             17.65843623      13.243827169999999                       0
    94   1      19.865740750000001      15.451131699999999                       0
    95   1      22.073045279999999      13.243827169999999                       0
    96   1      24.280349810000001      15.451131699999999                       0
    97   1      26.487654339999999      13.243827169999999                       0
    98   1      28.694958870000001      15.451131699999999                       0
    99   2      30.902263390000002      13.243827169999999                       0
   100   2      33.109567920000003      15.451131699999999                       0
   101   2      35.316872449999998      13.243827169999999                       0
   102   1             37.52417698      15.451131699999999                       0
   103   2      39.731481510000002      13.243827169999999                       0
   104   2      41.938786030000003      15.451131699999999                       0
   105   2      44.146090559999998      13.243827169999999                       0
   106   2      46.353395089999999      15.451131699999999                       0
   107   1      48.560699620000001      13.243827169999999                       0
   108   1      50.768004150000003      15.451131699999999                       0
   109   2      52.975308679999998      13.243827169999999                       0
   110   1      55.182613199999999      15.451131699999999                       0
   111   2      57.389917730000001      13.243827169999999                       0
   112   2      59.597222260000002      15.451131699999999                       0
   113   2                       0             17.65843623                       0
   114   2              2.20730453      19.865740750000001                       0
   115   1      4.4146090600000001             17.65843623                       0
   116   2      6.6219135800000002      19.865740750000001                       0
   117   2      8.8292181099999993             17.65843623                       0
   118   2      11.036522639999999      19.865740750000001                       0
   119   1      13.243827169999999             17.65843623                       0
   120   1      15.451131699999999      19.865740750000001                       0
   121   1             17.65843623             17.65843623                       0
   122   1      19.865740750000001      19.865740750000001                       0
   123   1      22.073045279999999             17.65843623                       0
   124   2      24.280349810000001      19.865740750000001                       0
   125   2      26.487654339999999             17.65843623                       0
   126   2      28.694958870000001      19.865740750000001                       0
   127   1      30.902263390000002             17.65843623                       0
   128   1      33.109567920000003      19.865740750000001                       0
   129   1      35.316872449999998             17.65843623                       0
   130   1             37.52417698      19.865740750000001                       0
   131   2      39.731481510000002             17.65843623                       0
   132   1      41.938786030000003      19.865740750000001                       0
   133   2      44.146090559999998             17.65843623                       0
   134   1      46.353395089999999      19.865740750000001                       0
   135   1      48.560699620000001             17.65843623                       0
   136   1      50.768004150000003      19.865740750000001                       0
   137   1      52.975308679999998             17.65843623                       0
   138   2      55.182613199999999      19.865740750000001                       0
   139   2      57.389917730000001             17.65843623                       0
   140   1      59.597222260000002      19.865740750000001                       0
   141   1                       0      22.073045279999999                       0
   142   1              2.20730453      24.280349810000001                       0
   143   1      4.4146090600000001      22.073045279999999                       0
   144   1      6.6219135800000002      24.280349810000001                       0
   145   2      8.8292181099999993      22.073045279999999                       0
   146   1      11.036522639999999      24.280349810000001                       0
   147   1      13.243827169999999      22.073045279999999                       0
   148   1      15.451131699999999      24.280349810000001                       0
   149   2             17.65843623      22.073045279999999                       0
   150   2      19.865740750000001      24.280349810000001                       0
   151   1      22.073045279999999      22.073045279999999                       0
   152   2      24.280349810000001      24.280349810000001                       0
   153   2      26.487654339999999      22.073045279999999                       0
   154   1      28.694958870000001      24.280349810000001                       0
   155   1      30.902263390000002      22.073045279999999                       0
   156   1      33.109567920000003      24.280349810000001                       0
   157   1      35.316872449999998      22.073045279999999                       0
   158   1             37.52417698      24.280349810000001                       0
   159   1      39.731481510000002      22.073045279999999                       0
   160   1      41.938786030000003      24.280349810000001                       0
   161   1      44.146090559999998      22.073045279999999                       0
   162   1      46.353395089999999      24.280349810000001                       0
   163   1      48.560699620000001      22.073045279999999                       0
   164   1      50.768004150000003      24.280349810000001                       0
   165   2      52.975308679999998      22.073045279999999                       0
   166   2      55.182613199999999      24.280349810000001                       0
   167   2      57.389917730000001      22.073045279999999                       0
   168   2      59.597222260000002      24.280349810000001                       0
   169   1                       0      26.487654339999999                       0
   170   2              2.20730453      28.694958870000001                       0
   171   1      4.4146090600000001      26.487654339999999                       0
   172   2      6.6219135800000002      28.694958870000001                       0
   173   2      8.8292181099999993      26.487654339999999                       0
   174   1      11.036522639999999      28.694958870000001                       0
   175   1      13.243827169999999      26.487654339999999                       0
   176   2      15.451131699999999      28.694958870000001                       0
   177   1             17.65843623      26.487654339999999                       0
   178   2      19.865740750000001      28.694958870000001                       0
   179   1      22.073045279999999      26.487654339999999                       0
   180   2      24.280349810000001      28.694958870000001                       0
   181   1      26.487654339999999      26.487654339999999                       0
   182   1      28.694958870000001      28.694958870000001                       0
   183   1      30.902263390000002      26.487654339999999                       0
   184   1      33.109567920000003      28.694958870000001                       0
   185   2      35.316872449999998      26.487654339999999                       0
   186   2             37.52417698      28.694958870000001                       0
   187   2      39.731481510000002      26.487654339999999                       0
   188   2      41.938786030000003      28.694958870000001                       0
   189   2      44.146090559999998      26.487654339999999                       0
   190   1      46.353395089999999      28.694958870000001                       0
   191   2      48.560699620000001      26.487654339999999                       0
   192   1      50.768004150000003      28.694958870000001                       0
   193   2      52.975308679999998      26.487654339999999                       0
   194   2      55.182613199999999      28.694958870000001                       0
   195   1      57.389917730000001      26.487654339999999                       0
   196   2      59.597222260000002      28.694958870000001                       0
   197   1                       0                       0      3.1215999999999999
   198   2              2.20730453              2.20730453      3.1215999999999999
   199   1      4.4146090600000001                       0      3.1215999999999999
   200   1      6.6219135800000002              2.20730453      3.1215999999999999
   201   1      8.8292181099999993                       0      3.1215999999999999
   202   1      11.036522639999999              2.20730453      3.1215999999999999
   203   1      13.243827169999999                       0      3.1215999999999999
   204   2      15.451131699999999              2.20730453      3.1215999999999999
   205   2             17.65843623                       0      3.1215999999999999
   206   1      19.865740750000001              2.20730453      3.1215999999999999
   207   2      22.073045279999999                       0      3.1215999999999999
   208   1      24.280349810000001              2.20730453      3.1215999999999999
   209   1      26.487654339999999                       0      3.1215999999999999
   210   2      28.694958870000001              2.20730453      3.1215999999999999
   211   1      30.902263390000002                       0      3.1215999999999999
   212   2      33.109567920000003              2.20730453      3.1215999999999999
   213   1      35.316872449999998                       0      3.1215999999999999
   214   2             37.52417698              2.20730453      3.1215999999999999
   215   1      39.731481510000002                       0      3.1215999999999999
   216   1      41.938786030000003              2.20730453      3.1215999999999999
   217   2      44.146090559999998                       0      3.1215999999999999
   218   2      46.353395089999999              2.20730453      3.1215999999999999
   219   1      48.560699620000001                       0      3.1215999999999999
   220   2      50.768004150000003              2.20730453      3.1215999999999999
   221   2      52.975308679999998                       0      3.1215999999999999
   222   1      55.182613199999999              2.20730453      3.1215999999999999
   223   1      57.389917730000001                       0      3.1215999999999999
   224   1      59.597222260000002              2.20730453      3.1215999999999999
   225   2                       0      4.4146090600000001      3.1215999999999999
   226   2              2.20730453      6.6219135800000002      3.1215999999999999
   227   1      4.4146090600000001      4.4146090600000001      3.1215999999999999
   228   2      6.6219135800000002      6.6219135800000002      3.1215999999999999
   229   1      8.8292181099999993      4.4146090600000001      3.1215999999999999
   230   1      11.036522639999999      6.6219135800000002      3.1215999999999999
   231   2      13.243827169999999      4.4146090600000001      3.1215999999999999
   232   2      15.451131699999999      6.6219135800000002      3.1215999999999999
   233   1             17.65843623      4.4146090600000001      3.1215999999999999
   234   1      19.865740750000001      6.6219135800000002      3.1215999999999999
   235   2      22.073045279999999      4.4146090600000001      3.1215999999999999
   236   1      24.280349810000001      6.6219135800000002      3.1215999999999999
   237   1      26.487654339999999      4.4146090600000001      3.1215999999999999
   238   2      28.694958870000001      6.6219135800000002      3.1215999999999999
   239   1      30.902263390000002      4.4146090600000001      3.1215999999999999
   240   1      33.109567920000003      6.6219135800000002      3.1215999999999999
   241   2      35.316872449999998      4.4146090600000001      3.1215999999999999
   242   1             37.52417698      6.6219135800000002      3.1215999999999999
   243   1      39.731481510000002      4.4146090600000001      3.1215999999999999
   244   1      41.938786030000003      6.6219135800000002      3.1215999999999999
   245   2      44.146090559999998      4.4146090600000001      3.1215999999999999
   246   2      46.353395089999999      6.6219135800000002      3.1215999999999999
   247   2      48.560699620000001      4.4146090600000001      3.1215999999999999
   248   2      50.768004150000003      6.6219135800000002      3.1215999999999999
   249   1      52.975308679999998      4.4146090600000001      3.1215999999999999
   250   1      55.182613199999999      6.6219135800000002      3.1215999999999999
   251   1      57.389917730000001      4.4146090600000001      3.1215999999999999
   252   1      59.597222260000002      6.6219135800000002      3.1215999999999999
   253   1                       0      8.8292181099999993      3.1215999999999999
   254   2              2.20730453      11.036522639999999      3.1215999999999999
   255   1      4.4146090600000001      8.8292181099999993      3.1215999999999999
   256   2      6.6219135800000002      11.036522639999999      3.1215999999999999
   257   1      8.8292181099999993      8.8292181099999993      3.1215999999999999
   258   2      11.036522639999999      11.036522639999999      3.1215999999999999
   259   2      13.243827169999999      8.8292181099999993      3.1215999999999999
   260   2      15.451131699999999      11.036522639999999      3.1215999999999999
   261   2             17.65843623      8.8292181099999993      3.1215999999999999
   262   1      19.865740750000001      11.036522639999999      3.1215999999999999
   263   1      22.073045279999999      8.8292181099999993      3.1215999999999999
   264   1      24.280349810000001      11.036522639999999      3.1215999999999999
   265   2      26.487654339999999      8.8292181099999993      3.1215999999999999
   266   2      28.694958870000001      11.036522639999999      3.1215999999999999
   267   2      30.902263390000002      8.8292181099999993      3.1215999999999999
   268   2      33.109567920000003      11.036522639999999      3.1215999999999999
   269   2      35.316872449999998      8.8292181099999993      3.1215999999999999
   270   1             37.52417698      11.036522639999999      3.1215999999999999
   271   1      39.731481510000002      8.8292181099999993      3.1215999999999999
   272   2      41.938786030000003      11.036522639999999      3.1215999999999999
   273   1      44.146090559999998      8.8292181099999993      3.1215999999999999
   274   1      46.353395089999999      11.036522639999999      3.1215999999999999
   275   1      48.560699620000001      8.8292181099999993      3.1215999999999999
   276   2      50.768004150000003      11.036522639999999      3.1215999999999999
   277   1      52.975308679999998      8.8292181099999993      3.1215999999999999
   278   1      55.182613199999999      11.036522639999999      3.1215999999999999
   279   1      57.389917730000001      8.8292181099999993      3.1215999999999999
   280   2      59.597222260000002      11.036522639999999      3.1215999999999999
   281   2                       0      13.243827169999999      3.1215999999999999
   282   1              2.20730453      15.451131699999999      3.1215999999999999
   283   1      4.4146090600000001      13.243827169999999      3.1215999999999999
   284   2      6.6219135800000002      15.451131699999999      3.1215999999999999
   285   2      8.8292181099999993      13.243827169999999      3.1215999999999999
   286   2      11.036522639999999      15.451131699999999      3.1215999999999999
   287   1      13.243827169999999      13.243827169999999      3.1215999999999999
   288   1      15.451131699999999      15.451131699999999      3.1215999999999999
   289   1             17.65843623      13.243827169999999      3.1215999999999999
   290   1      19.865740750000001      15.451131699999999      3.1215999999999999
   291   1      22.073045279999999      13.243827169999999      3.1215999999999999
   292   2      24.280349810000001      15.451131699999999      3.1215999999999999
   293   2      26.487654339999999      13.243827169999999      3.1215999999999999
   294   1      28.694958870000001      15.451131699999999      3.1215999999999999
   295   2      30.902263390000002      13.243827169999999      3.1215999999999999
   296   1      33.109567920000003      15.451131699999999      3.1215999999999999
   297   2      35.316872449999998      13.243827169999999      3.1215999999999999
   298   2             37.52417698      15.451131699999999      3.1215999999999999
   299   2      39.731481510000002      13.243827169999999      3.1215999999999999
   300   1      41.938786030000003      15.451131699999999      3.1215999999999999
   301   2      44.146090559999998      13.243827169999999      3.1215999999999999
   302   2      46.353395089999999      15.451131699999999      3.1215999999999999
   303   1      48.560699620000001      13.243827169999999      3.1215999999999999
   304   2      50.768004150000003      15.451131699999999      3.1215999999999999
   305   1      52.975308679999998      13.243827169999999      3.1215999999999999
   306   2      55.182613199999999      15.451131699999999      3.1215999999999999
   307   1      57.389917730000001      13.243827169999999      3.1215999999999999
   308   2      59.597222260000002      15.451131699999999      3.1215999999999999
   309   2                       0             17.65843623      3.1215999999999999
   310   2              2.20730453      19.865740750000001      3.1215999999999999
   311   1      4.4146090600000001             17.65843623      3.1215999999999999
   312   2      6.6219135800000002      19.865740750000001      3.1215999999999999
   313   1      8.8292181099999993             17.65843623      3.1215999999999999
   314   1      11.036522639999999      19.865740750000001      3.1215999999999999
   315   2      13.243827169999999             17.65843623      3.1215999999999999
   316   1      15.451131699999999      19.865740750000001      3.1215999999999999
   317   1             17.65843623             17.65843623      3.1215999999999999
   318   2      19.865740750000001      19.865740750000001      3.1215999999999999
   319   1      22.073045279999999             17.65843623      3.1215999999999999
   320   1      24.280349810000001      19.865740750000001      3.1215999999999999
   321   2      26.487654339999999             17.65843623      3.1215999999999999
   322   2      28.694958870000001      19.865740750000001      3.1215999999999999
   323   2      30.902263390000002             17.65843623      3.1215999999999999
   324   2      33.109567920000003      19.865740750000001      3.1215999999999999
   325   2      35.316872449999998             17.65843623      3.1215999999999999
   326   1             37.52417698      19.865740750000001      3.1215999999999999
   327   1      39.731481510000002             17.65843623      3.1215999999999999
   328   2      41.938786030000003      19.865740750000001      3.1215999999999999
   329   1      44.146090559999998             17.65843623      3.1215999999999999
   330   2      46.353395089999999      19.865740750000001      3.1215999999999999
   331   2      48.560699620000001             17.65843623      3.1215999999999999
   332   2      50.768004150000003      19.865740750000001      3.1215999999999999
   333   2      52.975308679999998             17.65843623      3.1215999999999999
   334   1      55.182613199999999      19.865740750000001      3.1215999999999999
   335   2      57.389917730000001             17.65843623      3.1215999999999999
   336   1      59.597222260000002      19.865740750000001      3.1215999999999999
   337   2                       0      22.073045279999999      3.1215999999999999
   338   1              2.20730453      24.280349810000001      3.1215999999999999
   339   1      4.4146090600000001      22.073045279999999      3.1215999999999999
   340   2      6.6219135800000002      24.280349810000001      3.1215999999999999
   341   2      8.8292181099999993      22.073045279999999      3.1215999999999999
   342   2      11.036522639999999      24.280349810000001      3.1215999999999999
   343   2      13.243827169999999      22.073045279999999      3.1215999999999999
   344   2      15.451131699999999      24.280349810000001      3.1215999999999999
   345   1             17.65843623      22.073045279999999      3.1215999999999999
   346   1      19.865740750000001      24.280349810000001      3.1215999999999999
   347   2      22.073045279999999      22.073045279999999      3.1215999999999999
   348   1      24.280349810000001      24.280349810000001      3.1215999999999999
   349   1      26.487654339999999      22.073045279999999      3.1215999999999999
   350   1      28.694958870000001      24.280349810000001      3.1215999999999999
   351   2      30.902263390000002      22.073045279999999      3.1215999999999999
   352   1      33.109567920000003      24.280349810000001      3.1215999999999999
   353   2      35.316872449999998      22.073045279999999      3.1215999999999999
   354   2             37.52417698      24.280349810000001      3.1215999999999999
   355   2      39.731481510000002      22.073045279999999      3.1215999999999999
   356   1      41.938786030000003      24.280349810000001      3.1215999999999999
   357   1      44.146090559999998      22.073045279999999      3.1215999999999999
   358   1      46.353395089999999      24.280349810000001      3.1215999999999999