LAMMPS data file via write_data, version 2 Aug 2023, timestep = 1000, units = metal

128 atoms
5 atom types

0 12.4448753626681 xlo xhi
0 12.4977552574677 ylo yhi
0 12.4597827937251 zlo zhi

Masses

1 58.693
2 58.933
3 47.867
4 91.224
5 178.49

Atoms # atomic

65 4 1.476641756679792 1.5270708702852578 1.5752859424970278 0 0 0
22 1 3.3600297306115787 2.981189101420572 2.8984851594550185 0 0 0
23 2 6.033378685314773 2.7798942406283027 2.9285584787380197 0 0 0
66 3 4.687865448411531 1.5103435656134319 1.4611178671694909 0 0 0
67 3 7.715386628828425 1.482479225857741 1.478921871146176 0 0 0
4 2 9.231069247943005 0.10757883221780676 0.1711471405672521 0 0 0
20 2 9.124994199768382 0.007447795942128107 3.0973954230617617 0 0 0
24 1 9.322454495954949 2.6850721108614035 2.932833290435866 0 0 0
8 2 9.04143879008595 2.8977711245287887 0.06638609402109087 0 0 0
21 2 12.398410600043926 3.0075950105956837 3.113924673010814 -1 0 0
68 3 10.842250435013815 1.5125164544352585 1.6132953761295417 0 0 0
69 4 1.7073396620531194 4.61262043373106 1.5109331032189632 0 0 0
70 4 4.762039395893 4.657563793448217 1.512060904293903 0 0 0
71 4 7.842221490443016 4.658035759822816 1.5199590552861209 0 0 0
72 4 10.975806249692644 4.625480653370178 1.3677821367915082 0 0 0
73 5 1.4499825704581322 7.854971683592197 1.423240510585201 0 0 0
74 5 4.720472195007772 7.898761162230959 1.5559780979212696 0 0 0
27 2 6.3579206881206725 6.372973049732497 3.035889169659026 0 0 0
75 3 7.906418737697864 7.881656394943817 1.7720051216709114 0 0 0
12 2 9.4807801441358 6.514745390374326 0.29760898520005197 0 0 0
28 2 9.334686464668719 6.415788360119992 2.942516224147121 0 0 0
11 1 6.343044208504492 6.540374494127299 0.13412785733591698 0 0 0
25 2 0.0537409170543991 6.093150817325413 3.0810796360020336 0 0 0
76 3 10.898327203933318 7.799882815686329 1.5956119212914344 0 0 0
30 2 2.962398133318599 9.454346483973975 3.044194064013808 0 0 0
77 3 1.6792128211746584 10.99822131140041 1.5308096577912087 0 0 0
3 1 6.147116719016229 0.04705307754191344 0.02857110513969809 0 0 0
18 2 3.2156381598932144 12.426353418092306 2.860402199304869 0 -1 0
19 1 6.176249863950843 12.474234921671442 2.736721187585435 0 -1 0
15 1 6.297166777886386 9.515761678249604 0.23896844046630122 0 0 0
78 3 4.585847515057792 10.99613572862097 1.4213758099368028 0 0 0
31 1 6.2863152234382635 9.684487308259309 2.8878671223757597 0 0 0
79 3 7.911950274702418 10.929409256219635 1.5627591064231379 0 0 0
16 2 9.525877428450922 9.53331968117791 0.25537313246933796 0 0 0
32 2 9.321954730643723 9.545990976255588 3.0507478951270746 0 0 0
29 2 12.274902025273631 9.169447308532407 3.139412189922937 -1 0 0
80 4 11.11563461942503 11.017135828879704 1.6569998514263207 0 0 0
81 4 1.5443068661028603 1.2662665392759807 4.818612472370707 0 0 0
82 5 4.651788680424949 1.5587725684495068 4.716946725563549 0 0 0
83 4 7.723815506792278 1.4568770062251575 4.75767537674483 0 0 0
17 1 12.156746379757463 0.2894611027413958 3.2159212627185982 -1 0 0
84 3 10.718626848511999 1.4944874782663757 4.684696810800151 0 0 0
33 2 12.212232037892676 12.42638925150694 6.2545602498970325 -1 -1 0
85 5 1.6297405227006292 4.494097300743129 4.645459584679146 0 0 0
86 4 4.732590107943841 4.808838675419148 4.569882739362285 0 0 0
40 2 9.400717182303053 3.104957876738056 6.280729061548522 0 0 0
87 5 7.704559440412728 4.612341077867889 4.50523622372238 0 0 0
37 1 12.182197667946328 2.955094052260938 6.0592765100002435 -1 0 0
41 2 12.368058186715702 5.922625959632685 6.130531551502247 -1 0 0
88 5 10.761981967236284 4.500235939050856 4.420006026967305 0 0 0
26 1 3.1853447636759133 6.484353821307352 3.100071657558655 0 0 0
89 4 1.4051624919556691 7.673254747056782 4.609471533051237 0 0 0
90 4 4.807441659716531 8.052547845729277 4.592507120636341 0 0 0
91 4 7.7918932790301865 7.842709559970774 4.755027071767761 0 0 0
92 5 10.819972205988067 7.681043479884873 4.530935545598375 0 0 0
93 5 1.3968806351731584 10.882013804018051 4.522264081974544 0 0 0
94 5 4.515061706143745 11.082056639365424 4.671949735089788 0 0 0
95 5 7.750060376778169 11.02181929788745 4.7183393628115144 0 0 0
45 1 12.315261607333698 9.493780078198403 6.064523781211282 -1 0 0
48 2 9.532696700241496 9.608387101134717 6.18898760175569 0 0 0
96 3 10.790408976463551 10.96870251335564 4.644803778511828 0 0 0
97 3 1.653387870580415 1.6480065732899378 7.841886794318147 0 0 0
34 1 3.304827866745412 0.16046467965721256 6.559174281951282 0 0 0
38 2 3.120920642659925 2.944834887115222 6.44353026168543 0 0 0
98 3 4.586647340519294 1.5690834558603917 7.993245110849539 0 0 0
39 1 6.05561088749441 2.9268989663703135 6.460688713044808 0 0 0
99 5 7.749879858458583 1.5691241934910887 7.943717242471891 0 0 0
100 4 10.83613314507119 1.4761187646442262 7.861694536169201 0 0 0
36 1 9.514563014238055 12.34172590393653 6.3191407134477 0 -1 0
101 4 1.4948399348822752 4.625173414518715 7.763930166068523 0 0 0
102 4 4.705841066723515 4.614425698604843 7.870138897151084 0 0 0
43 1 6.440699263645067 6.146115963203685 6.273784024001223 0 0 0
103 5 7.733514943451641 4.601389492187095 7.798939178364934 0 0 0
44 1 9.548336884901135 6.00248326320841 6.318278912838035 0 0 0
104 3 10.82061374451532 4.578790404169216 7.740852911492641 0 0 0
42 1 3.0558769185265247 6.540261299846167 6.195479375878646 0 0 0
105 3 1.4484226057240284 7.847452428203909 7.727519542058309 0 0 0
57 1 0.26601295753634857 6.18285098836019 9.128611754832095 0 0 0
106 4 4.800411725382882 7.77159863358709 7.741003301002283 0 0 0
46 1 3.12289543398256 9.274567678216155 6.111711652241096 0 0 0
107 5 7.862283906776888 7.763533733612057 7.8347760603344705 0 0 0
108 5 10.977647960007959 7.804967988275742 7.611181519749386 0 0 0
60 2 9.424694842231856 6.259564624188564 9.030961266833547 0 0 0
64 1 9.528409245704898 9.595241526638823 9.183434353270973 0 0 0
109 4 1.540386618354274 11.013648791190963 7.742224755323025 0 0 0
35 1 6.144978573195442 12.319359408181969 6.4850160129044285 0 -1 0
47 1 6.062685259950741 9.571052620497976 6.393682257167999 0 0 0
110 5 4.541093795079534 10.94950067683655 8.032053807524601 0 0 0
111 4 7.834101072339796 10.962561603725447 7.946738765417253 0 0 0
112 3 11.048157446897871 11.072929733061233 7.716579924628633 0 0 0
5 2 0.2933232676107994 3.161896822592535 12.448210340260834 0 0 -1
49 1 0.09346637793580159 0.2949701807046684 9.549837426338478 0 0 0
53 1 0.03292542818689125 2.997060147018054 9.638576734064497 0 0 0
113 3 1.724329827228193 1.6242111727825705 10.948574213256684 0 0 0
6 2 3.251906091748288 2.845930359407679 12.252626553534192 0 0 -1
50 2 3.1764834363203387 0.026453055284942066 9.441354963207216 0 0 0
54 2 3.1881821687584666 2.9077567151109203 9.294758931001395 0 0 0
7 2 6.166503991906699 2.9071784842450548 12.322700864701636 0 0 -1
51 1 6.13059746291912 0.07481401617486123 9.52791032013034 0 0 0
114 3 4.759644981232061 1.5639774067940024 10.981492188071586 0 0 0
55 1 6.115579406350992 3.104148610346758 9.454925799002243 0 0 0
115 3 7.695868840790463 1.7341611360760534 10.955051065219479 0 0 0
56 2 9.084844132416036 3.130368672704176 9.56169073208435 0 0 0
52 2 9.30290435163131 0.07159997662926 9.472607384180463 0 0 0
116 5 10.871544312434406 1.5910090890006061 11.22325722981233 0 0 0
9 1 0.14270183150077342 6.254975559333536 12.410029098317057 0 0 -1
117 5 1.6359133431035797 4.705319231719995 10.830685116056783 0 0 0
118 5 4.76090691964993 4.787873991180966 10.96464378345241 0 0 0
59 2 6.255223508731345 6.17613735613382 9.479135084901783 0 0 0
119 3 7.777922203798963 4.827763793685725 10.872910158763576 0 0 0
120 4 10.826755193886955 4.722823902775659 10.785920413716994 0 0 0
58 1 3.0774623356377657 6.381143665813263 9.390702077216831 0 0 0
121 3 1.511861840500485 7.758435287089893 10.819782643800016 0 0 0
61 1 12.335035560031613 9.462158559960205 9.090574838104615 -1 0 0
62 1 3.0146315552614955 9.076491298361404 9.351824769193396 0 0 0
10 2 3.0850034880348347 6.459630619241249 12.12330348540073 0 0 -1
122 3 4.763990938356773 7.951960020013536 10.858385169369894 0 0 0
14 1 3.2589983498238446 9.302820147407248 12.399540358347906 0 0 -1
63 2 6.245273847762772 9.48673264188841 9.675673116288525 0 0 0
123 4 7.8206054490486725 7.897407624553094 11.011771043089832 0 0 0
124 4 10.945768934371323 7.924208554767144 10.938928994329853 0 0 0
13 2 0.008948186338491402 9.476319589812022 12.444896933461775 0 0 -1
1 2 0.12524935083084138 0.0005413760864554594 12.179783459761708 0 0 -1
125 5 1.6816462922868658 10.931209485829106 10.735715024734295 0 0 0
2 1 3.161448893436925 0.0422111952491598 12.406383568615922 0 0 -1
126 3 4.643771906474756 11.043276774428422 10.979306425398901 0 0 0
127 5 7.717684485284693 11.0119600065491 11.04933874903869 0 0 0
128 5 10.841007724035176 11.059537750341558 10.923236413323746 0 0 0

Velocities

65 1.0695256199882062 1.0174541334925848 -0.9260662060427528
22 0.3980598061744008 2.120476742332276 -0.5380293357987256
23 1.0230145677264808 -1.7389796095156642 -2.6565057205238976
66 3.177974787580204 -0.8298843253798827 1.1164560039016902
67 1.1526502444667956 0.7947527309094933 0.8273360762344169
4 0.14047027788649413 1.8336428460449095 1.577122947383897
20 -0.42031060740012327 -2.0094497536827562 -1.3549331033955458
24 -3.6940124273713573 -0.26837137611017914 1.6499037199688726
8 -1.5341014962947501 0.8947433921702009 -1.005925318332264
21 -1.9117110855966115 1.5894233679454106 0.9704799487321412
68 0.49382277687003145 -0.3500055312126338 0.003170411407972123
69 -3.2775608781461893 -0.3083350894490458 0.9876555977176741
70 1.2732319501056064 3.966306922084405 -1.2916925880607386
71 -1.5473341035550026 -0.060416843298805194 -0.7328703284596537
72 -0.33824087926752416 1.4162014303070931 0.7153851548902297
73 0.6793824321134836 0.6546438880037897 -0.9082336590355237
74 1.3209144245570763 -2.415714331981841 -1.323121159604938
27 -4.2082251988292185 1.609460764709114 -1.0994531400796665
75 -4.253757338313049 -2.2878767380267413 -2.0638977529165254
12 1.700288393608796 -0.25468577973869233 0.30845329003452077
28 -3.8795294583717546 0.41626407921030717 2.884949748489875
11 -2.4019614796169972 -0.07814068659115922 1.2341637062953938
25 3.0452051356429553 -2.3292919565996124 -1.8725153696590497
76 0.5492503642123505 0.10757453870848543 -0.3552217700778903
30 -3.924835149781162 4.663080118187715 -2.683641321080417
77 -0.10990343403120517 -1.8103085901600802 2.4081720006472254
3 2.059616663666753 0.05145806602757063 0.39402410795105636
18 2.0735377034805516 -4.114352485192399 1.7677835650431066
19 -1.6091907500780178 -4.0055416170632645 -0.7353097414861567
15 0.21692239083021697 2.2668931440865543 0.4240262147625602
78 0.7516284238439225 -0.1873593144694684 -0.6579379108540003
31 1.6231877853633485 -0.7344750068349603 -3.7715788337212715
79 -2.638020719992417 0.5944382746766731 -4.970680501612661
16 1.642892536119826 2.890397599467019 0.739422534068789
32 -1.2633390199170855 -0.6055944685946913 -1.5768788562673501
29 0.4713597032408021 -2.3155626927543533 -1.8498593711806008
80 2.771336459777807 -0.14599919921642288 -1.2024078669538754
81 3.1868986378672024 -0.004173402071238224 0.14849566712809667
82 0.18139660361500068 -0.417535432951401 -0.24029292030408897
83 0.9659874398773339 -0.08693739462366104 1.2724152217677334
17 -1.203765676914245 -4.514221893073498 -0.8839705625296171
84 -0.7890027619793271 0.23352474345330487 2.383415533153814
33 -0.5576645173363873 4.091710581657716 1.9945566246876372
85 0.4394635895083489 0.04854133916487647 0.36654364667819433
86 1.3847124791504608 1.8634702806864158 1.5891547240610822
40 1.3165493215376882 1.2208623433164152 -2.863720584994902
87 -1.0027465057091656 0.33063470187735194 -1.0560212961307995
37 -1.402127142671241 -5.2421190278540015 -2.721705634452898
41 -1.9483644898084498 -0.1569209394416201 1.4705274728467386
88 0.726596885626754 0.8126556985521133 -0.706761108394441
26 1.4475352593547421 0.2598659648542176 1.6077605787787626
89 1.5194756454760674 2.2021458587880196 -0.5820581810919112
90 -5.575137926168565 1.2350433436477701 0.13939828491421932
91 1.3441225854522851 0.10961007680204947 -0.13823282718326885
92 -1.5256529735562434 -0.05021340947724988 0.9174021097885604
93 -0.5273901189393451 -1.10295597775007 -0.2229597192099431
94 1.5202777192305064 -0.18569231729955468 0.4757575984151651
95 0.29807961527934357 0.3880926687960782 -2.03675351452047
45 -1.188101361744866 0.7158703785549492 2.2122532616278234
48 1.8347563492994428 -0.3673665072418575 -0.7446382853095518
96 -2.71617583340891 -1.394374444639274 -1.565339248035914
97 0.9623788817147163 -1.4025778806119638 0.9074934992939135
34 0.2993719200975493 -0.18678470191013588 0.07634238082031984
38 0.19913270418285312 -2.315591011115108 2.141355254918756
98 1.144574207042908 -0.5861196188201012 -2.2208452604958757
39 -0.3877795741203198 -0.8747949571776418 0.2515085600439346
99 1.4310221806206798 1.5582452761233407 -1.267805324677284
100 -0.21808837792510777 0.6294663446445762 -1.2199138565078746
36 -1.4236780765707129 0.5160395507947261 3.2661711901849713
101 2.2892615704816435 3.875232385256012 0.4578980185424914
102 -0.5224722499433585 0.6836799591066047 -0.08633787084671907
43 -0.24287357504791576 1.6911965738292116 2.9913911131188264
103 -1.1305306611265251 0.05238551717430049 0.26301536658761965
44 -0.9965943714973773 -3.7110794530680056 -1.4020531541546484
104 0.9045808545998048 -0.9508583294450453 -1.1923867080693902
42 -1.5009451557989923 -1.5326919151479739 0.9873355105783056
105 -3.4306289820444325 3.3860006597154655 -0.16088694244773932
57 -3.4026080471126217 -4.343018174416379 0.9303897306640045
106 0.183383426294066 -1.1389786103708732 -1.026246990858584
46 2.411410902056165 -3.857541084652045 1.3021517164315934
107 1.4929981246822124 -0.8245469381409809 0.19016173501846131
108 0.43701558878156443 0.415160217086196 0.20613582573735492
60 0.2776804583179809 1.0009974117161242 0.8991713022940515
64 -2.893526562036096 -0.4240828184802738 0.9517086486349338
109 0.6828236404656662 1.1994559159781895 0.011124749215410228
35 4.7430225217420805 0.05877614749184984 0.41247909761421914
47 4.310143764427148 0.033581933183371944 -1.9505488307071694
110 0.5365984627543614 -1.1020938999663763 -1.1248687388366019
111 -1.5791327120009353 2.2478573810867184 2.556351981010309
112 -1.350819336705938 -0.6703478701507483 4.250515141467539
5 -2.4908730328052404 -1.6062735171660845 1.9696550432970286
49 -1.152005474996403 -3.7479943436061163 1.7715276325925178
53 -0.3813313998171802 -1.3076518216700768 -1.5194880304152052
113 -0.02692296540221858 -1.172091298462805 -0.151272579774847
6 -2.583870098930208 2.7957621818018725 1.9925479304594893
50 0.24912327200479328 1.872470592896434 -0.05508880330378829
54 2.0489394863382313 -2.4191276280111254 1.4513705386408478
7 0.06464614475556628 1.5249905258621226 -1.4100589691611534
51 2.074539277669866 -3.2130310933321344 1.7758082801555297
114 4.190169573619606 2.1713391402290774 3.947252939675008
55 -1.982110395111896 3.4243533508988158 -0.496959731883118
115 3.703084334461868 -0.9915862850605983 -0.7829090328514906
56 1.0035861132521249 -1.9919113863116695 0.06000717762133882
52 5.7729172558189275 2.6772789537982713 1.1582278745683532
116 -1.2487680515371982 2.1933576402763264 0.22464678673714922
9 2.8311651435117207 2.322290388140714 -1.8324934247998081
117 -0.6290550557822887 -0.9709954324566751 -1.2742312007195562
118 -0.5273661557469476 0.06609701326080902 -0.07760677972146442
59 -0.5300548211727628 2.733309017928801 -2.4029316452710447
119 -1.7091363443181171 0.013168672159542075 -1.33945126923781
120 -1.5069652226755275 1.0493657784906816 0.5480038106997173
58 -1.5534998589585691 -0.5163642144326349 -3.34313394900901
121 -2.1504715911171295 -1.2422308640291082 -2.449146385546438
61 -3.3084648641264813 -1.9331617756262396 -0.8545435529553944
62 -3.7173481714923033 -2.269581894333172 -0.7019933228209503
10 2.6935799000988556 0.47625973448107584 0.26038024342769256
122 0.5625651656779382 3.8561687596943535 0.6179466221363888
14 -1.8424606370573915 -1.187643120473684 -0.8515573722670748
63 -0.4373576730850214 0.2996083914449441 -0.6253701765743162
123 2.5663004822059903 2.047894246647044 0.12307643041823921
124 4.388017368602296 0.12369114629485246 2.4579764500596886
13 0.12399127877409544 1.0797320686013778 0.6430044585276143
1 -2.3050052113525448 -0.8256082314360681 -1.1637130943641696
125 -0.7706637978676095 -0.5803192197861453 1.4383577016388396
2 3.2808951182207493 -0.24534643564582265 0.9610173564878476
126 1.237293003960986 -4.445478502779713 2.5560544582397156
127 -1.4284155616097987 -1.0907545747685885 1.0484427510106489
128 -0.5654843605448848 -0.46213319647314477 2.6987258567731685
