ITEM: TIMESTEP
0
ITEM: NUMBER OF ATOMS
128
ITEM: BOX BOUNDS pp pp pp
0.0000000000000000e+00 1.2511647994663599e+01
0.0000000000000000e+00 1.2405380448062900e+01
0.0000000000000000e+00 1.2493650882139701e+01
ITEM: ATOMS id type x y z
65 4 1.5764 1.70524 1.4999
66 3 4.69845 1.49577 1.45298
22 1 3.14797 2.93577 2.95887
23 1 6.03787 3.07988 2.843
18 2 3.16556 0.151546 3.10645
19 1 6.27832 0.0439254 2.91908
67 5 7.85705 1.6853 1.48839
20 1 9.31867 0.155195 2.93438
68 5 11.1005 1.67259 1.68932
69 3 1.63724 4.69392 1.41571
6 2 3.10904 3.30037 0.0172275
9 2 0.215367 5.87154 0.0615067
7 2 5.98143 3.2551 0.131734
70 3 4.62525 4.61981 1.5143
10 2 3.2065 6.07676 0.015734
71 4 7.70588 4.72047 1.59359
72 4 10.8912 4.60703 1.48919
73 4 1.46143 7.73206 1.61704
27 1 6.17919 6.4553 3.02945
74 3 4.70723 7.70646 1.35614
30 1 3.42147 9.07131 3.07122
31 2 6.04047 9.13689 2.94919
75 3 7.75722 7.74733 1.54391
76 4 10.7878 7.75172 1.5501
77 5 1.84559 10.972 1.65609
13 1 0.127758 9.6334 0.16927
2 1 3.5555 12.2344 0.0744816
14 1 3.31128 9.32167 0.0581393
78 3 4.87368 10.7229 1.59021
79 4 7.78347 10.9105 1.47929
80 5 10.9381 10.9668 1.64296
81 5 1.50348 1.438 4.69677
82 4 4.73327 1.62952 4.70589
83 4 7.76427 1.47201 4.74998
84 4 10.8939 1.6695 4.92203
24 2 9.50649 3.08335 3.18369
85 5 1.58305 4.64065 4.52489
37 1 0.125359 3.23978 6.15165
86 4 4.76715 4.68131 4.70881
40 2 9.00078 3.29235 6.23734
87 4 7.77292 4.68413 4.53093
21 2 12.464 3.24667 3.14518
88 3 10.8766 4.71189 4.7284
41 1 12.5054 6.18753 6.00299
25 1 12.3765 6.17216 3.33822
89 3 1.68995 7.7291 4.75563
42 1 3.01413 6.32434 6.15537
26 1 3.47132 6.34415 3.22779
90 3 4.75002 7.72677 4.67275
46 1 3.15613 9.08189 6.15198
28 1 9.18836 6.42414 3.23014
91 3 7.78781 7.76634 4.72928
48 1 9.11586 9.18428 6.19001
92 5 10.9315 7.72532 4.69156
29 1 12.2903 9.221 3.16497
33 2 0.207121 12.2842 6.13713
93 5 1.59654 10.604 4.63033
94 5 4.62982 10.7945 4.58595
32 2 9.27718 9.30842 3.26307
95 5 7.59728 10.6329 4.56852
17 2 12.4332 12.2458 3.23557
96 5 10.8275 10.8223 4.80951
38 1 2.72462 3.08718 6.5112
97 3 1.51107 1.57182 7.86903
34 2 3.09493 0.216161 6.30372
50 2 3.09499 0.254592 9.29911
98 5 4.69733 1.56838 7.88151
99 4 7.96607 1.56648 7.72317
55 2 6.44676 3.08655 9.2712
100 4 11.0741 1.23644 7.87675
101 5 1.33534 4.7706 7.92593
102 4 4.67132 4.76915 7.8573
44 1 9.11498 6.09849 6.2887
39 2 6.35408 3.44197 6.37419
103 3 7.73384 4.71111 7.91289
104 4 10.8716 4.4093 7.62607
105 3 1.6551 7.87585 7.81876
58 1 3.01689 6.2899 9.28133
61 2 0.405409 9.29589 9.28358
62 2 3.15256 9.05421 9.33284
106 3 4.68014 7.62959 7.67224
43 1 6.41911 6.20352 6.31481
47 1 6.28935 9.2371 6.47709
107 5 7.73799 7.79536 7.91169
108 4 10.9971 7.64345 7.882
45 2 0.293488 9.34218 6.32695
109 5 1.57216 10.8849 7.88126
49 2 0.304364 12.3893 9.35257
35 1 6.25136 12.2431 6.37817
110 4 4.67623 10.9015 7.73949
111 3 7.78183 10.8344 7.94576
36 2 9.2175 12.157 6.39115
52 2 9.14701 12.2576 9.32898
112 4 10.9793 10.6122 7.86429
5 2 0.222186 3.0688 12.081
53 1 0.127975 2.86037 9.40878
113 3 1.63573 1.64254 10.9095
114 4 4.76309 1.73527 10.9013
3 2 6.36918 0.0426377 12.4597
115 3 7.87769 1.53546 10.9212
51 2 6.30698 0.0374365 9.44086
4 2 9.39249 0.259614 12.351
8 2 9.63007 2.97569 12.2512
56 1 9.56053 2.92999 9.47791
116 3 11.1164 1.49889 10.9508
54 2 3.06716 3.25844 9.40276
117 3 1.66601 4.61252 10.9867
118 3 4.62331 4.71925 10.9385
11 1 6.15148 6.13639 12.4012
59 1 6.31631 6.00482 9.53474
119 5 7.77426 4.52178 11.0855
60 1 9.23051 6.17667 9.58427
120 5 11.0927 4.70039 10.8236
57 1 0.226584 6.42675 9.71588
121 5 1.62627 7.87365 11.0905
122 4 4.63152 7.77705 10.7755
15 2 6.27809 9.26866 12.2647
123 3 7.71532 7.89185 10.9002
12 2 9.05212 6.45712 12.3376
16 1 9.08505 9.0477 12.3447
124 5 10.94 7.72586 10.9304
1 1 0.00447976 12.3314 12.4921
125 5 1.59663 10.8493 11.0077
126 5 4.79363 10.9903 10.8233
64 2 9.22827 9.40485 9.47596
63 2 6.34318 9.40844 9.39942
127 3 7.75691 10.9636 10.9193
128 4 10.8816 10.9373 10.8296
ITEM: TIMESTEP
1000
ITEM: NUMBER OF ATOMS
128
ITEM: BOX BOUNDS pp pp pp
-2.0864489380658213e-02 1.2532512484044297e+01
-1.9178808249677992e-02 1.2424559256312552e+01
4.4236776903245456e-02 1.2449414105236418e+01
ITEM: ATOMS id type x y z
65 4 1.61268 1.56174 1.65777
66 3 4.65327 1.5566 1.50649
22 1 3.39291 3.32548 2.72359
23 1 6.08128 3.03551 2.87792
18 2 3.03783 0.0174013 3.06202
19 1 6.05348 0.317234 3.23906
67 5 7.73226 1.58743 1.43874
20 1 9.48413 0.0414615 2.9544
68 5 11.0721 1.4114 1.60066
69 3 1.50104 4.53238 1.44591
6 2 3.18087 3.24011 12.3358
9 2 0.187098 5.95743 0.153518
7 2 6.07405 3.21921 0.0990347
70 3 4.67252 4.76331 1.46341
10 2 3.1142 6.06956 0.102392
71 4 7.62498 4.82084 1.67318
72 4 10.8865 4.62705 1.7577
73 4 1.65367 7.62332 1.60378
27 1 6.30667 6.43935 3.22043
74 3 4.75629 7.70344 1.61512
30 1 3.21248 8.96886 3.23802
31 2 6.40953 9.06826 2.99081
75 3 7.7343 7.80923 1.5202
76 4 10.9343 7.71434 1.46898
77 5 1.62094 10.8303 1.65116
13 1 12.3916 9.33088 0.0840537
2 1 3.3427 12.213 12.4029
14 1 3.38659 9.32314 0.277748
78 3 4.76646 10.8408 1.71405
79 4 7.71794 10.8379 1.35964
80 5 10.9125 10.7947 1.54957
81 5 1.52832 1.47507 4.73371
82 4 4.63003 1.61505 4.6865
83 4 7.87497 1.5634 4.6693
84 4 10.9207 1.58968 4.85568
24 2 9.464 2.92671 2.98866
85 5 1.75168 4.57066 4.45157
37 1 0.0869495 3.35441 6.16382
86 4 4.77004 4.6536 4.72621
40 2 9.51362 3.3021 6.04946
87 4 7.81486 4.7241 4.81012
21 2 12.322 3.15366 3.42666
88 3 10.9905 4.82277 4.79354
41 1 0.167965 6.08327 6.1062
25 1 0.109117 6.03194 3.32338
89 3 1.58965 7.89154 4.82925
42 1 3.05295 6.5224 6.1822
26 1 3.4409 6.29155 3.05442
90 3 4.7534 7.85147 4.68164
46 1 3.21546 9.01839 6.14133
28 1 9.18013 6.7009 3.07267
91 3 7.84947 7.84186 4.72159
48 1 9.01866 9.32157 6.08834
92 5 11.0179 7.77675 4.47529
29 1 0.133467 9.48095 3.18223
33 2 0.154956 12.277 6.28797
93 5 1.62989 10.9328 4.76532
94 5 4.61704 10.8789 4.70766
32 2 9.28745 9.37915 3.17287
95 5 7.6626 10.8228 4.47469
17 2 12.4646 12.3495 3.2541
96 5 10.8715 10.8314 4.6937
38 1 3.09695 2.94342 6.45225
97 3 1.60505 1.51053 7.91083
34 2 3.22236 0.0950841 6.49081
50 2 3.09993 0.00631245 9.39012
98 5 4.72451 1.5767 7.94037
99 4 7.75472 1.68842 7.85275
55 2 6.21887 3.09297 9.51595
100 4 10.938 1.55828 7.9616
101 5 1.58835 4.66672 7.83661
102 4 4.77302 4.78369 7.99626
44 1 9.40357 6.12894 6.21647
39 2 6.18238 3.17735 6.29473
103 3 7.90261 4.66244 7.8913
104 4 11.005 4.70215 7.83109
105 3 1.45894 7.72619 7.70042
58 1 2.82393 6.3129 9.30587
61 2 -0.0048243 9.29177 9.30527
62 2 2.94374 8.97105 9.18436
106 3 4.68566 7.93942 7.79761
43 1 6.24069 6.52743 6.24637
47 1 6.25611 9.31167 6.30053
107 5 7.90322 7.68089 7.78893
108 4 11.077 7.8226 7.58427
45 2 0.0926196 9.40197 6.14467
109 5 1.59697 10.7738 7.83546
49 2 0.152204 0.0660859 9.39829
35 1 6.19338 12.4041 6.19854
110 4 4.71523 10.7749 7.86743
111 3 7.66915 10.9018 7.84669
36 2 9.03439 12.076 6.25465
52 2 9.1166 0.138539 9.58762
112 4 10.6827 10.9473 7.78873
5 2 0.018019 2.98486 12.3689
53 1 0.117449 2.99215 9.48093
113 3 1.59971 1.51019 11.0171
114 4 4.71151 1.49212 11.0366
3 2 6.25536 12.3001 12.453
115 3 7.8019 1.59614 10.924
51 2 6.36461 12.4072 9.37979
4 2 9.16318 0.153258 12.402
8 2 9.41895 2.99235 0.0862806
56 1 9.63798 3.06207 9.67478
116 3 11.0774 1.52426 11.0044
54 2 3.1086 3.19787 9.42906
117 3 1.62259 4.66908 10.9177
118 3 4.62612 4.65566 10.9323
11 1 6.25941 6.3349 12.2853
59 1 6.42582 6.166 9.59958
119 5 7.8132 4.57914 11.0524
60 1 9.28221 6.23028 9.52565
120 5 11.076 4.5604 11.1281
57 1 0.152062 6.2012 9.37128
121 5 1.46327 7.793 10.9783
122 4 4.5194 7.69827 10.771
15 2 6.26284 9.08142 0.132072
123 3 7.76352 7.95356 10.9016
12 2 9.27991 6.35964 0.0454838
16 1 9.35176 9.2614 12.2432
124 5 10.8822 7.79995 10.8078
1 1 0.0904263 12.3557 12.4046
125 5 1.56069 10.8767 10.7775
126 5 4.8055 10.7429 10.9666
64 2 9.04372 9.44224 9.32491
63 2 6.22942 9.31018 9.25639
127 3 7.71422 11.0003 10.7682
128 4 10.809 11.0286 10.8302
ITEM: TIMESTEP
2000
ITEM: NUMBER OF ATOMS
128
ITEM: BOX BOUNDS pp pp pp
1.8850148889251628e-02 1.2492797845774387e+01
-5.6627907287181145e-03 1.2411043238791589e+01
2.1485108252440988e-02 1.2472165773887248e+01
ITEM: ATOMS id type x y z
65 4 1.4465 1.52353 1.47396
18 2 3.13572 12.2275 3.03249
66 3 4.67893 1.60685 1.49621
23 1 6.1353 3.01121 2.87136
67 5 7.92063 1.45057 1.49472
20 1 9.53279 12.317 3.21855
68 5 10.983 1.53087 1.47801
24 2 9.56144 3.11763 3.06959
8 2 9.41232 3.01138 0.0547881
69 3 1.52156 4.73729 1.46032
9 2 0.0913512 6.11719 12.4722
10 2 3.17309 6.12795 0.0368753
22 1 3.17676 3.13457 3.06309
7 2 6.15449 3.04511 -0.0106386
70 3 4.63828 4.536 1.52447
71 4 7.77231 4.58029 1.62322
72 4 10.9966 4.64814 1.6003
73 4 1.64457 7.68265 1.65076
74 3 4.77801 7.79938 1.4906
26 1 3.12842 6.10781 2.9033
31 2 5.84349 9.1539 2.94636
75 3 7.82568 7.9177 1.62776
28 1 9.11808 6.23317 2.93555
15 2 6.22482 9.22712 0.0879874
12 2 9.09879 6.21922 0.103248
76 4 10.9258 7.66822 1.60829
77 5 1.50844 10.8622 1.66375
14 1 3.11803 9.45723 -0.0221414
78 3 4.69395 10.7522 1.50933
3 2 6.13005 12.3484 0.146101
79 4 7.63924 10.8351 1.59313
13 1 0.14596 9.32902 12.2949
80 5 10.8663 10.7955 1.45645
81 5 1.54941 1.34485 4.597
19 1 5.90776 0.0294313 3.06615
82 4 4.63203 1.46803 4.60938
83 4 7.77561 1.6441 4.60287
84 4 10.9444 1.51752 4.72491
85 5 1.63511 4.7027 4.68297
37 1 0.110006 3.00484 6.1262
41 1 0.24442 6.53871 6.39002
25 1 12.4448 6.2186 3.53469
86 4 5.00691 4.67548 4.50949
87 4 8.10118 4.77981 4.69986
40 2 9.57812 3.02058 6.33137
21 2 12.4494 3.23233 3.25986
88 3 11.0078 4.64413 4.77943
44 1 9.0537 6.51202 6.50553
89 3 1.63525 7.66412 4.72883
42 1 3.07185 6.34463 6.40859
30 1 3.19728 9.2414 3.19361
90 3 4.71985 7.69784 4.68772
46 1 3.20898 8.90096 6.22137
43 1 6.46233 6.18316 6.54416
27 1 6.29125 6.47052 2.91842
91 3 7.65574 7.82006 4.58818
92 5 10.7036 7.5574 4.7158
29 1 12.5002 9.12349 3.37436
93 5 1.56702 10.7013 4.63311
45 2 0.339332 9.14149 6.20526
94 5 4.72663 10.7617 4.69266
35 1 6.46327 0.0840089 6.23165
48 1 8.99833 9.12388 6.04346
32 2 9.06454 9.31382 3.1528
95 5 7.74365 10.743 4.69977
17 2 12.4043 12.2655 3.20449
96 5 10.9058 10.5969 4.7928
38 1 3.23437 3.15158 5.9304
97 3 1.68979 1.63067 7.67337
34 2 3.08513 0.0928259 6.37911
98 5 4.74144 1.66523 7.73957
99 4 8.0811 1.5575 7.84469
100 4 11.1711 1.53898 8.004
101 5 1.50702 4.56477 7.92384
102 4 4.72255 4.68154 7.8338
39 2 6.41602 3.3242 6.45165
103 3 7.75459 4.65239 7.94452
104 4 10.8927 4.74476 7.73311
105 3 1.7483 7.80099 7.72905
58 1 3.06727 6.28366 9.06214
61 2 0.264651 9.47785 9.32029
62 2 3.29852 9.35306 9.30816
106 3 4.66289 7.73395 7.96635
63 2 6.40474 9.47448 9.6796
47 1 6.12607 9.10924 6.24493
107 5 7.6419 8.00274 8.05557
108 4 10.854 7.85419 7.85058
33 2 0.228327 12.2224 6.39089
109 5 1.69539 10.7764 7.79263
110 4 4.6793 10.8678 7.86513
111 3 7.78846 10.9056 8.05725
36 2 9.34204 12.2282 6.03942
64 2 9.11564 9.57326 9.72347
112 4 10.7808 10.8959 7.68686
50 2 3.25442 0.169936 9.33465
49 2 0.390722 0.155097 9.27279
5 2 12.4266 3.17636 12.3252
53 1 0.19524 3.12858 9.551
113 3 1.551 1.55706 10.9605
114 4 4.63087 1.67901 10.9905
52 2 9.24635 0.0668449 9.43634
115 3 7.81025 1.66041 11.0505
4 2 9.44588 0.107732 12.1538
56 1 9.31564 3.38193 9.63271
116 3 10.8939 1.68381 10.9152
54 2 3.09469 3.199 9.56531
117 3 1.57606 4.74238 10.968
57 1 0.136016 6.1578 9.32495
6 2 3.15883 3.3763 -0.00216076
55 2 6.43214 3.01074 9.43905
118 3 4.73339 4.67982 10.9742
59 1 6.34612 6.13205 9.24028
119 5 7.65148 4.80976 11.0844
120 5 10.8938 4.78877 10.9353
121 5 1.63141 7.7849 10.8585
122 4 4.80065 7.63017 10.8877
11 1 5.92925 6.12232 0.251192
60 1 9.19266 6.26128 9.23037
123 3 7.88969 7.70765 11.0308
16 1 9.15589 9.38626 12.4517
124 5 10.7979 7.83138 10.897
1 1 12.2062 12.3079 12.308
125 5 1.78671 10.9593 10.8006
2 1 3.25966 12.1414 0.11824
126 5 4.93146 10.8881 10.8294
51 2 6.35266 0.128026 9.41484
127 3 7.74227 11.0498 11.0017
128 4 11.0138 11.0775 10.6823
ITEM: TIMESTEP
3000
ITEM: NUMBER OF ATOMS
128
ITEM: BOX BOUNDS pp pp pp
2.7860365579988056e-03 1.2508861958105605e+01
-2.8282128503355430e-02 1.2433662576566242e+01
-1.4102258026888137e-02 1.2507753140166576e+01
ITEM: ATOMS id type x y z
65 4 1.625 1.64839 1.65591
66 3 4.60282 1.6467 1.52115
23 1 6.14898 3.14768 3.01437
19 1 5.96374 0.206604 2.9315
67 5 7.73894 1.57384 1.47975
68 5 10.885 1.63775 1.50738
8 2 9.29795 2.88678 12.2999
69 3 1.53305 4.6317 1.47937
9 2 0.0307084 5.99779 12.4662
26 1 3.07632 6.08308 3.08974
10 2 3.14064 6.12392 12.415
22 1 3.08292 3.44005 2.86039
70 3 4.57325 4.7649 1.50255
11 1 6.09858 6.02302 12.2663
71 4 7.67895 4.76955 1.44176
24 2 9.6668 3.29488 3.22713
72 4 10.9539 4.6497 1.43353
73 4 1.52587 7.83693 1.46391
74 3 4.51859 7.63459 1.48876
31 2 6.1801 9.18381 3.07104
15 2 6.4123 9.56979 -0.0646984
75 3 7.59651 7.72759 1.20822
28 1 9.27189 6.3286 3.291
12 2 9.33472 6.04913 12.0411
27 1 6.03886 6.31266 2.96774
76 4 10.7163 7.77676 1.40908
18 2 3.4195 12.338 2.80628
77 5 1.54994 10.9368 1.5282
78 3 4.85174 10.8777 1.50192
3 2 6.30814 12.4093 0.104575
2 1 3.18459 0.0728369 0.241848
79 4 7.96699 10.7531 1.63491
80 5 10.8938 10.8918 1.623
81 5 1.57471 1.46229 4.82237
37 1 0.137271 3.06284 6.11948
82 4 4.42507 1.50266 4.60516
83 4 7.75425 1.49402 4.7376
35 1 6.24444 -0.0618561 6.3045
84 4 10.9238 1.64218 4.78857
85 5 1.59538 4.57721 4.65581
86 4 4.74448 4.78981 4.72647
38 1 2.82688 2.89696 6.61808
87 4 7.74485 4.70434 4.58155
21 2 0.0619895 3.11695 3.06749
88 3 10.9051 4.66586 4.51109
89 3 1.5982 7.94753 4.7333
29 1 12.4044 8.98177 3.18514
45 2 0.119536 9.0865 6.09882
30 1 3.50836 9.14799 2.81408
90 3 4.72675 7.87691 4.60786
46 1 3.24259 9.22821 6.35635
47 1 6.09516 9.18988 6.16843
91 3 7.7434 7.80803 4.55768
48 1 9.31027 9.09591 6.23341
25 1 0.128447 6.08385 2.96037
92 5 11.0059 7.52773 4.88182
93 5 1.56785 10.8845 4.62709
94 5 4.74258 10.7328 4.5656
32 2 9.34364 9.26696 3.24073
95 5 7.85991 10.7445 4.79224
36 2 9.32049 12.2362 6.09132
20 1 9.56224 12.4017 3.28418
17 2 -0.0070817 12.3807 3.1304
96 5 11.0483 10.5909 4.76032
97 3 1.54269 1.31134 8.0497
34 2 3.30697 12.324 6.56513
49 2 0.189044 0.160166 9.65572
98 5 4.62392 1.5748 7.91874
50 2 3.01243 0.0738959 9.37337
99 4 7.9411 1.35444 7.81926
40 2 9.25605 3.20956 6.12503
100 4 11.1212 1.70857 7.88547
101 5 1.4608 4.53165 8.05971
57 1 0.0135479 6.35055 9.45878
102 4 4.52096 4.73197 7.83907
43 1 6.13359 6.65146 6.33154
39 2 6.27555 2.97161 6.43127
103 3 7.70429 4.55159 7.74454
59 1 6.25337 6.09653 9.60709
104 4 10.9328 4.79701 7.57412
41 1 0.275546 6.35285 6.33036
42 1 2.96131 6.59895 6.14533
105 3 1.41808 7.81573 7.84815
58 1 3.05605 6.3405 9.227
106 3 4.54723 7.73848 7.86081
44 1 9.0441 6.20395 6.27662
107 5 7.57759 7.92222 7.92291
60 1 8.99255 6.28348 9.1865
108 4 10.9139 7.85645 7.9511
61 2 0.0754948 9.48862 9.46183
33 2 12.4881 12.4117 6.46822
109 5 1.48184 10.788 7.63864
62 2 3.03758 9.14573 9.39337
110 4 4.76412 10.8055 7.97374
111 3 7.85555 10.7836 7.86865
112 4 10.9239 10.9823 7.85678
113 3 1.62961 1.50938 11.0836
7 2 6.23235 3.47291 0.0306297
114 4 4.93804 1.71912 11.0645
52 2 9.32591 12.4665 9.56782
115 3 7.92434 1.48039 10.8761
55 2 6.41862 2.96763 9.23055
51 2 6.38811 0.00957867 9.46484
4 2 9.44606 12.331 12.5006
116 3 10.9033 1.50306 11.1802
53 1 0.216519 2.74329 9.66447
54 2 3.23835 2.92341 9.55135
117 3 1.42305 4.55589 11.0456
6 2 3.06779 3.14997 0.00687029
118 3 4.52169 4.68376 10.9656
56 1 9.23926 3.17757 8.99822
119 5 7.7824 4.55309 10.832
5 2 0.258148 3.05193 -0.162691
120 5 11.0187 4.69812 10.7185
121 5 1.75438 7.72467 10.9133
122 4 4.93885 7.86445 10.907
123 3 7.8625 7.68742 11.0786
124 5 11.0036 7.82307 10.9386
14 1 3.26126 9.33346 -0.0888961
13 1 12.5302 9.40373 -0.0471853
125 5 1.76877 10.9262 11.0056
126 5 4.80247 10.9576 10.9256
63 2 6.61649 9.60621 9.79825
64 2 9.13676 9.38883 9.40889
16 1 9.28294 9.41278 12.2329
127 3 7.85686 10.9563 11.0215
1 1 0.0416311 0.0876363 0.117056
128 4 11.0517 11.0138 10.9421
ITEM: TIMESTEP
4000
ITEM: NUMBER OF ATOMS
128
ITEM: BOX BOUNDS pp pp pp
2.9924708477292228e-02 1.2481723286186289e+01
-2.7110912886575633e-02 1.2432491360949442e+01
-1.0216066515481792e-02 1.2503866948655210e+01
ITEM: ATOMS id type x y z
65 4 1.66972 1.57847 1.3828
1 1 0.124547 0.224273 12.3043
66 3 4.51987 1.41883 1.43914
19 1 5.93408 12.3063 2.91059
2 1 2.98939 12.1633 0.0870141
67 5 7.7602 1.66576 1.69364
68 5 10.9289 1.58204 1.559
69 3 1.56007 4.61548 1.38757
26 1 3.50641 6.16271 2.86081
22 1 3.30467 3.32579 2.94771
21 2 0.283377 3.34358 2.98017
25 1 0.216996 6.26236 3.34556
6 2 2.97081 3.23041 0.148373
23 1 5.83952 2.97102 2.82009
70 3 4.67166 4.62882 1.41408
7 2 5.681 2.958 0.0674682
71 4 7.77781 4.63521 1.42097
72 4 10.9457 4.81664 1.77527
73 4 1.61298 7.64997 1.53511
74 3 4.67091 7.92054 1.72686
31 2 6.3215 9.30409 2.95588
27 1 6.24911 6.3063 2.85596
30 1 3.30742 9.34717 2.84002
75 3 7.7216 7.98499 1.57732
76 4 10.9469 7.87244 1.33555
77 5 1.37694 10.938 1.59605
18 2 3.26625 12.1817 2.99287
78 3 4.80243 10.8713 1.41126
3 2 6.15753 0.100326 -0.0207247
79 4 7.82123 10.924 1.35827
80 5 10.7112 10.8406 1.69264
81 5 1.62531 1.53243 4.58255
37 1 0.320646 3.18634 6.51303
82 4 4.75915 1.58654 4.67315
83 4 7.82572 1.55156 4.72131
84 4 11.0734 1.52435 4.87569
85 5 1.86831 4.74306 4.60098
86 4 4.99735 4.66637 4.42727
87 4 8.11251 4.58613 4.53577
40 2 9.19076 3.03842 6.19053
24 2 9.63175 2.86823 3.27828
88 3 10.9523 4.43252 4.64783
89 3 1.72742 7.67042 4.61722
45 2 0.395963 9.03141 5.98266
42 1 3.3636 6.52735 6.19456
90 3 4.83972 7.68306 4.7635
47 1 6.52345 9.12349 6.32529
28 1 9.28053 6.50467 3.18737
91 3 7.73858 7.85208 4.72093
48 1 9.28286 9.16253 6.17024
32 2 9.29334 9.27759 3.08991
29 1 12.5502 9.29422 3.48504
92 5 10.8316 7.62158 4.64383
93 5 1.78629 10.8535 4.7409
94 5 4.77667 10.8346 4.81865
95 5 7.72009 10.8243 4.60523
36 2 9.30901 12.3734 6.22457
20 1 9.48018 0.138886 3.07689
17 2 0.154109 12.0925 3.33507
96 5 10.9308 10.7185 4.8572
38 1 3.01793 2.98589 6.49944
97 3 1.51171 1.38221 7.79805
50 2 2.95999 0.0506149 9.29291
98 5 4.62226 1.44884 7.89427
99 4 7.85253 1.63352 7.92392
39 2 6.30198 3.01416 6.10568
55 2 6.14003 3.03268 9.47084
100 4 11.0318 1.49121 8.0229
101 5 1.66593 4.73154 7.83098
102 4 4.80174 4.55023 7.81407
103 3 7.71377 4.75268 7.73678
56 1 9.31645 3.00621 9.47236
104 4 10.8661 4.60602 7.76987
41 1 0.148886 6.16921 6.1592
105 3 1.67649 7.6889 7.77772
58 1 3.26301 6.35008 9.27746
46 1 3.13507 9.00769 6.19
43 1 6.71364 6.35591 6.27281
106 3 4.94758 7.72844 7.90929
44 1 9.11899 6.15443 6.34766
107 5 8.00596 7.84642 8.0746
60 1 9.43882 5.99123 9.22752
108 4 11.2403 7.82578 7.62029
109 5 1.56493 10.8465 7.78581
35 1 6.27902 12.3841 6.20573
34 2 2.96084 12.5183 6.29546
110 4 4.60148 10.7804 7.7655
111 3 7.5961 11.0148 7.89015
33 2 0.268642 -0.0511205 6.21839
112 4 10.7098 10.778 8.09989
49 2 12.4183 0.0703733 9.48358
113 3 1.43482 1.60978 10.7178
53 1 0.201352 3.25618 9.34125
5 2 12.4352 3.10627 12.3516
114 4 4.54178 1.50075 10.9256
54 2 3.02692 3.00465 9.45244
8 2 9.29702 3.13655 -0.0428087
52 2 9.13422 0.169782 9.63391
115 3 7.61484 1.64076 11.1334
51 2 6.33301 -0.0178792 9.47276
116 3 10.8304 1.84373 10.7991
9 2 0.25381 6.09562 12.3275
117 3 1.65943 4.60584 10.9779
10 2 3.21696 5.9281 0.1898
11 1 6.23488 6.22061 0.228533
59 1 5.99875 6.12622 9.5587
118 3 4.56274 4.57061 11.0101
12 2 9.30864 6.38424 12.3576
119 5 7.77736 4.64959 10.8577
120 5 10.8802 4.71417 11.0852
57 1 12.2621 6.19734 9.24431
62 2 3.18573 9.13679 9.18669
121 5 1.5986 7.61415 10.9071
122 4 4.64519 7.73536 11.1301
123 3 7.63708 7.82341 11.0924
124 5 10.8332 7.89993 10.6947
61 2 0.23509 9.27756 9.50217
13 1 0.126147 9.2079 12.3562
125 5 1.62759 10.9467 10.767
14 1 3.22757 9.31921 0.153793
126 5 4.6333 10.8094 10.8893
15 2 6.21857 9.448 -0.0534675
63 2 6.10572 9.25625 9.58951
64 2 9.00699 9.47451 9.80612
16 1 9.05581 9.14746 12.373
127 3 7.63238 11.002 10.8262
4 2 9.26744 0.35311 -0.0447477
128 4 10.7228 11.1189 11.1546
