ITEM: TIMESTEP
0
ITEM: NUMBER OF ATOMS
128
ITEM: BOX BOUNDS pp pp pp
0.0000000000000000e+00 1.2444875362668100e+01
0.0000000000000000e+00 1.2497755257467700e+01
0.0000000000000000e+00 1.2459782793725100e+01
ITEM: ATOMS id type x y z
65 4 1.47664 1.52707 1.57529
22 1 3.36003 2.98119 2.89849
23 2 6.03338 2.77989 2.92856
66 3 4.68787 1.51034 1.46112
3 1 6.14712 0.0470531 0.0285711
67 3 7.71539 1.48248 1.47892
4 2 9.23107 0.107579 0.171147
20 2 9.12499 0.0074478 3.0974
24 1 9.32245 2.68507 2.93283
8 2 9.04144 2.89777 0.0663861
21 2 12.3984 3.0076 3.11392
68 3 10.8423 1.51252 1.6133
69 4 1.70734 4.61262 1.51093
25 2 0.0537409 6.09315 3.08108
70 4 4.76204 4.65756 1.51206
71 4 7.84222 4.65804 1.51996
72 4 10.9758 4.62548 1.36778
73 5 1.44998 7.85497 1.42324
74 5 4.72047 7.89876 1.55598
26 1 3.18534 6.48435 3.10007
27 2 6.35792 6.37297 3.03589
75 3 7.90642 7.88166 1.77201
11 1 6.34304 6.54037 0.134128
12 2 9.48078 6.51475 0.297609
28 2 9.33469 6.41579 2.94252
76 3 10.8983 7.79988 1.59561
30 2 2.9624 9.45435 3.04419
77 3 1.67921 10.9982 1.53081
18 2 3.21564 12.4264 2.8604
19 1 6.17625 12.4742 2.73672
78 3 4.58585 10.9961 1.42138
15 1 6.29717 9.51576 0.238968
31 1 6.28632 9.68449 2.88787
79 3 7.91195 10.9294 1.56276
32 2 9.32195 9.54599 3.05075
16 2 9.52588 9.53332 0.255373
80 4 11.1156 11.0171 1.657
81 4 1.54431 1.26627 4.81861
82 5 4.65179 1.55877 4.71695
83 4 7.72382 1.45688 4.75768
17 1 12.1567 0.289461 3.21592
84 3 10.7186 1.49449 4.6847
37 1 12.1822 2.95509 6.05928
85 5 1.62974 4.4941 4.64546
86 4 4.73259 4.80884 4.56988
87 5 7.70456 4.61234 4.50524
41 2 12.3681 5.92263 6.13053
88 5 10.762 4.50024 4.42001
89 4 1.40516 7.67325 4.60947
42 1 3.05588 6.54026 6.19548
90 4 4.80744 8.05255 4.59251
46 1 3.1229 9.27457 6.11171
91 4 7.79189 7.84271 4.75503
29 2 12.2749 9.16945 3.13941
92 5 10.82 7.68104 4.53094
93 5 1.39688 10.882 4.52226
94 5 4.51506 11.0821 4.67195
95 5 7.75006 11.0218 4.71834
45 1 12.3153 9.49378 6.06452
48 2 9.5327 9.60839 6.18899
96 3 10.7904 10.9687 4.6448
97 3 1.65339 1.64801 7.84189
34 1 3.30483 0.160465 6.55917
38 2 3.12092 2.94483 6.44353
98 3 4.58665 1.56908 7.99325
39 1 6.05561 2.9269 6.46069
54 2 3.18818 2.90776 9.29476
99 5 7.74988 1.56912 7.94372
40 2 9.40072 3.10496 6.28073
100 4 10.8361 1.47612 7.86169
101 4 1.49484 4.62517 7.76393
57 1 0.266013 6.18285 9.12861
102 4 4.70584 4.61443 7.87014
43 1 6.4407 6.14612 6.27378
103 5 7.73351 4.60139 7.79894
44 1 9.54834 6.00248 6.31828
104 3 10.8206 4.57879 7.74085
105 3 1.44842 7.84745 7.72752
106 4 4.80041 7.7716 7.741
107 5 7.86228 7.76353 7.83478
108 5 10.9776 7.80497 7.61118
60 2 9.42469 6.25956 9.03096
109 4 1.54039 11.0136 7.74222
35 1 6.14498 12.3194 6.48502
47 1 6.06269 9.57105 6.39368
110 5 4.54109 10.9495 8.03205
111 4 7.8341 10.9626 7.94674
33 2 12.2122 12.4264 6.25456
36 1 9.51456 12.3417 6.31914
64 1 9.52841 9.59524 9.18343
112 3 11.0482 11.0729 7.71658
61 1 12.335 9.46216 9.09057
49 1 0.0934664 0.29497 9.54984
53 1 0.0329254 2.99706 9.63858
113 3 1.72433 1.62421 10.9486
1 2 0.125249 0.000541376 12.1798
6 2 3.25191 2.84593 12.2526
50 2 3.17648 0.0264531 9.44135
7 2 6.1665 2.90718 12.3227
51 1 6.1306 0.074814 9.52791
114 3 4.75964 1.56398 10.9815
55 1 6.11558 3.10415 9.45493
2 1 3.16145 0.0422112 12.4064
115 3 7.69587 1.73416 10.9551
52 2 9.3029 0.0716 9.47261
116 5 10.8715 1.59101 11.2233
5 2 0.293323 3.1619 12.4482
117 5 1.63591 4.70532 10.8307
118 5 4.76091 4.78787 10.9646
56 2 9.08484 3.13037 9.56169
59 2 6.25522 6.17614 9.47914
119 3 7.77792 4.82776 10.8729
120 4 10.8268 4.72282 10.7859
9 1 0.142702 6.25498 12.41
58 1 3.07746 6.38114 9.3907
121 3 1.51186 7.75844 10.8198
62 1 3.01463 9.07649 9.35182
10 2 3.085 6.45963 12.1233
122 3 4.76399 7.95196 10.8584
14 1 3.259 9.30282 12.3995
123 4 7.82061 7.89741 11.0118
124 4 10.9458 7.92421 10.9389
13 2 0.00894819 9.47632 12.4449
125 5 1.68165 10.9312 10.7357
126 3 4.64377 11.0433 10.9793
63 2 6.24527 9.48673 9.67567
127 5 7.71768 11.012 11.0493
128 5 10.841 11.0595 10.9232
ITEM: TIMESTEP
1000
ITEM: NUMBER OF ATOMS
128
ITEM: BOX BOUNDS pp pp pp
-4.5972595794268045e-03 1.2449472622247544e+01
-2.5817653654820027e-02 1.2523572911122493e+01
-1.6546637507194539e-02 1.2476329431232280e+01
ITEM: ATOMS id type x y z
65 4 1.55567 1.45552 1.46864
66 3 4.5711 1.5527 1.5559
23 2 6.34342 2.97235 2.752
67 3 7.74384 1.50009 1.3424
4 2 9.2645 0.0046056 0.156567
24 1 9.37141 2.88532 2.72439
68 3 10.9056 1.59203 1.58074
69 4 1.49634 4.70831 1.47725
70 4 4.62482 4.55691 1.44309
71 4 7.73526 4.76203 1.32674
27 2 6.4522 6.18841 3.04319
72 4 10.9239 4.80368 1.54047
25 2 0.0479722 6.28489 3.02428
73 5 1.55528 8.00697 1.50526
26 1 3.03972 6.50385 2.8458
74 5 4.73982 7.96817 1.42468
11 1 6.0562 6.47151 -0.00738065
75 3 7.90363 7.95661 1.61392
12 2 9.3006 6.4055 0.351567
76 3 10.9025 7.87025 1.59619
29 2 12.427 9.17506 3.01389
30 2 3.09142 9.46738 3.03195
77 3 1.61993 10.8824 1.62181
3 1 6.026 12.464 -0.0118299
18 2 3.47562 12.3169 2.81214
78 3 4.67692 10.9378 1.42721
2 1 3.14871 12.3404 0.0236005
20 2 9.29832 12.4953 3.05271
19 1 6.28966 12.5004 2.75134
31 1 6.26993 9.60715 2.94383
79 3 7.89217 11.0659 1.59939
16 2 9.26278 9.39678 0.260501
80 4 11.0399 10.9934 1.59768
81 4 1.6914 1.32708 4.72637
37 1 0.0293505 2.88562 6.08251
82 5 4.79328 1.48874 4.59258
38 2 3.24819 2.98898 5.97466
83 4 7.81321 1.68618 4.51068
21 2 12.3642 2.97951 3.11443
17 1 12.1382 0.176988 3.27588
84 3 10.851 1.54077 4.72373
85 5 1.52362 4.60013 4.67491
22 1 3.14166 3.12888 3.25759
86 4 4.62469 4.74793 4.5062
87 5 7.68235 4.62113 4.59025
43 1 6.35482 6.07067 6.22061
41 2 12.2872 6.04968 6.05819
88 5 10.7788 4.56871 4.67932
89 4 1.34846 7.86525 4.81125
90 4 4.65249 7.73687 4.61346
47 1 6.03705 9.27004 6.14966
28 2 9.29074 6.3345 3.12212
91 4 7.68791 7.88057 4.64176
92 5 10.82 7.7448 4.58864
93 5 1.46087 10.9051 4.48594
94 5 4.64277 10.9345 4.62153
95 5 7.84732 10.9822 4.66251
32 2 9.34197 9.40165 3.15727
45 1 12.3039 9.66384 6.15913
96 3 10.9076 10.9329 4.70649
33 2 12.2197 12.4724 6.0111
36 1 9.47322 12.3964 6.18485
97 3 1.8261 1.82638 7.91969
34 1 3.4827 0.069429 6.34903
98 3 4.71933 1.46475 7.95782
39 1 6.22627 3.10262 6.42195
99 5 7.81498 1.40675 7.84448
100 4 11.0215 1.67178 7.84235
101 4 1.28463 4.75999 7.8664
102 4 4.43399 4.39433 7.78657
40 2 9.13204 3.12711 6.45298
103 5 7.63751 4.57486 8.09178
44 1 9.30093 6.04838 6.43056
104 3 10.8246 4.7027 7.88673
60 2 9.49923 6.11881 9.31427
42 1 2.97903 6.27906 6.54182
105 3 1.45915 7.82803 7.88354
62 1 2.92527 9.24747 9.27246
106 4 4.60204 7.76177 7.73784
107 5 7.79396 7.8332 7.87219
108 5 11.0229 7.7237 7.67004
46 1 2.86645 9.4445 6.35038
109 4 1.53551 11.3239 7.5266
61 1 0.0127547 9.8096 9.17477
35 1 6.12983 12.4546 6.31557
110 5 4.72918 10.8634 7.96289
111 4 7.77067 10.8135 7.79963
48 2 9.51773 9.61286 6.27451
64 1 9.68288 9.49444 9.00821
112 3 10.9265 11.0419 7.77915
54 2 3.06769 2.8318 9.67089
113 3 1.60773 1.51131 10.9702
5 2 0.14001 2.9802 12.4749
6 2 3.148 2.85397 12.4016
50 2 3.22715 0.240426 9.47884
114 3 4.5661 1.42176 10.9067
55 1 6.18809 2.81807 9.43
8 2 9.08167 2.97108 12.3803
7 2 6.23112 2.85791 12.2469
115 3 7.80594 1.49318 10.9012
56 2 9.15677 2.98584 9.63026
49 1 12.3909 0.160678 9.47457
53 1 12.4066 2.94694 9.66325
52 2 9.40381 0.18999 9.41131
116 5 10.9096 1.66477 11.0938
117 5 1.62162 4.82891 10.9094
118 5 4.79907 4.62455 10.8637
119 3 7.65403 4.55909 10.9856
120 4 10.6639 4.82157 11.053
58 1 3.01162 6.37321 9.37442
121 3 1.42528 7.85957 10.8834
59 2 6.11389 6.44583 9.49993
10 2 3.17806 6.6211 12.3906
122 3 4.65705 7.94559 10.9548
63 2 6.14753 9.31397 9.55157
15 1 6.36128 9.37911 12.4485
123 4 7.83225 7.68052 10.9784
57 1 12.3595 6.39889 9.46176
9 1 12.3925 6.57756 12.3753
124 4 10.9239 8.13954 11.008
1 2 0.435264 12.452 12.2868
13 2 0.255347 9.58698 12.358
125 5 1.61166 10.9336 10.7614
14 1 3.26603 9.45306 12.3707
126 3 4.75977 10.8911 10.8745
51 1 6.24686 12.4346 9.49734
127 5 7.85679 10.8622 10.9894
128 5 10.9592 11.0505 11.0813
ITEM: TIMESTEP
2000
ITEM: NUMBER OF ATOMS
128
ITEM: BOX BOUNDS pp pp pp
-3.9471460037453276e-02 1.2484346822705595e+01
-2.5032166354658436e-02 1.2522787423822344e+01
1.1197871531329895e-03 1.2458663006571957e+01
ITEM: ATOMS id type x y z
65 4 1.46621 1.51533 1.70623
66 3 4.65853 1.64057 1.55305
23 2 6.24692 2.93506 2.84469
67 3 7.72162 1.38851 1.58759
4 2 9.24179 0.102175 0.246994
24 1 9.32737 2.91092 2.91857
68 3 10.9378 1.75169 1.61948
69 4 1.51575 4.57257 1.54651
70 4 4.64327 4.70607 1.38936
71 4 7.73861 4.59142 1.4156
27 2 6.18138 6.1319 3.08789
72 4 10.8065 4.70606 1.47096
25 2 12.645 6.14351 3.25243
73 5 1.37285 7.733 1.50853
26 1 3.02419 6.34986 3.14276
74 5 4.59613 7.80863 1.70323
11 1 6.1864 6.53829 12.6925
75 3 7.77425 7.93089 1.49919
12 2 9.12007 6.30976 12.4658
76 3 10.7509 7.89769 1.54345
29 2 12.3501 9.32675 2.97279
30 2 2.97582 9.24867 3.14181
77 3 1.38416 10.91 1.47046
3 1 5.9336 -0.0155908 0.211272
18 2 3.27135 12.612 3.03345
78 3 4.41634 11.0564 1.40083
2 1 3.01332 0.241428 -0.02185
20 2 9.41399 0.126797 2.90832
19 1 6.06356 12.4671 2.9198
31 1 6.24885 9.71525 2.77569
79 3 7.92959 10.9847 1.51354
16 2 9.29776 9.40238 0.0126825
80 4 10.894 11.0642 1.56084
81 4 1.45997 1.40601 4.86299
37 1 12.1807 3.21529 6.33617
82 5 4.87244 1.59711 4.69248
38 2 3.37589 2.97367 6.17986
83 4 7.85459 1.54497 4.70272
21 2 12.3521 2.98429 3.02938
17 1 12.2042 0.306209 3.35969
84 3 10.8304 1.52771 4.70679
85 5 1.41362 4.46302 4.66063
22 1 3.06126 2.97149 3.46349
86 4 4.58506 4.67561 4.61925
87 5 7.64656 4.53751 4.52154
43 1 6.36239 6.04926 6.20672
41 2 12.2951 5.9933 6.31354
88 5 10.7571 4.5897 4.49907
89 4 1.56235 7.82277 4.80291
90 4 4.75755 7.84207 4.88744
47 1 6.09028 9.54375 6.3462
28 2 9.55134 6.37389 3.00639
91 4 7.81414 7.8009 4.61722
92 5 10.9023 7.86933 4.47523
93 5 1.40304 11.0715 4.35685
94 5 4.6084 10.9775 4.63769
95 5 7.74762 10.9835 4.54127
32 2 9.20122 9.35214 3.01406
45 1 12.4355 9.72926 5.92458
96 3 10.6597 10.916 4.63338
33 2 12.0952 12.3938 6.05478
36 1 9.45605 12.5383 6.12736
97 3 1.60689 1.55269 7.82606
34 1 3.27465 0.0928518 6.20568
98 3 4.60287 1.64251 7.98553
39 1 6.1877 3.20329 6.46028
99 5 7.7783 1.41466 7.81029
100 4 10.9023 1.36608 7.83616
101 4 1.51696 4.67646 7.70976
102 4 4.59075 4.54801 7.94826
40 2 9.24754 3.00213 6.29129
103 5 7.83243 4.67197 7.89844
44 1 9.36478 6.07721 6.2382
104 3 10.832 4.61117 7.83113
60 2 9.28125 6.12279 9.18553
42 1 2.94789 6.14502 6.12128
105 3 1.45348 7.94166 7.79872
62 1 3.14808 9.26006 9.42797
106 4 4.52887 7.79625 7.85066
107 5 7.79979 7.86566 7.64508
108 5 11.0136 7.74426 7.7759
46 1 3.0326 9.52825 6.33062
109 4 1.49143 11.0843 7.7061
61 1 12.673 9.31878 9.59372
35 1 6.29723 12.533 6.19907
110 5 4.74033 11.1316 7.93014
111 4 7.99798 10.9843 7.94316
48 2 9.50812 9.65217 6.22027
64 1 9.62443 9.32777 9.27467
112 3 11.0761 10.9311 7.64807
54 2 3.25065 2.78299 9.44295
113 3 1.64664 1.60482 10.9864
5 2 0.0631314 3.13761 -0.0764606
6 2 3.25881 3.08379 12.3688
50 2 3.07405 0.170933 9.35411
114 3 4.76155 1.52258 10.9028
55 1 6.4336 2.85897 9.50819
8 2 9.2332 3.06008 12.591
7 2 6.13205 2.65168 12.4657
115 3 7.84525 1.57405 11.0968
56 2 9.43889 2.96348 9.35723
49 1 0.0985391 0.288963 9.52382
53 1 0.0463823 2.98735 9.34552
52 2 9.36189 0.130459 9.7044
116 5 10.8854 1.63725 11.002
117 5 1.80599 4.5428 10.8409
118 5 4.93432 4.57426 10.9936
119 3 7.90977 4.7133 10.8308
120 4 11.0904 4.74204 10.8379
58 1 3.13871 6.33278 9.61856
121 3 1.6498 7.86916 10.912
59 2 6.46176 6.23014 9.0714
10 2 3.15547 6.33763 12.3047
122 3 4.72478 7.92106 10.9277
63 2 6.06377 9.73312 9.50627
15 1 6.09806 9.42592 -0.0464009
123 4 7.68725 7.81508 10.8471
57 1 0.12058 6.45336 9.26181
9 1 0.156358 6.09229 12.1153
124 4 10.9727 7.8 11.1327
1 2 0.0760877 0.0477794 0.0219549
13 2 -0.0316669 9.61191 12.3339
125 5 1.57031 10.9414 10.8775
14 1 3.24801 9.19473 12.4364
126 3 4.64336 11.1059 10.9681
51 1 6.3954 0.145095 9.60092
127 5 7.80927 10.9314 11.0081
128 5 10.8745 11.1225 10.9306
