ITEM: TIMESTEP
1000
ITEM: NUMBER OF ATOMS
128
ITEM: BOX BOUNDS pp pp pp
0.0000000000000000e+00 1.2511647994663599e+01
0.0000000000000000e+00 1.2405380448062900e+01
0.0000000000000000e+00 1.2493650882139701e+01
ITEM: ATOMS id type x y z v_sa_hydro v_sa_von
65 4 1.5764 1.70524 1.4999 -10.9419 13.2568
66 3 4.69845 1.49577 1.45298 2.80082 13.6696
22 1 3.14797 2.93577 2.95887 -0.11536 10.9997
23 1 6.03787 3.07988 2.843 -3.25233 5.24562
18 2 3.16556 0.151546 3.10645 8.71063 11.8307
19 1 6.27832 0.0439254 2.91908 2.33122 6.51079
67 5 7.85705 1.6853 1.48839 -4.40342 13.3686
20 1 9.31867 0.155195 2.93438 1.93615 5.08122
68 5 11.1005 1.67259 1.68932 -7.41295 20.7664
69 3 1.63724 4.69392 1.41571 -0.0345099 12.3374
6 2 3.10904 3.30037 0.0172275 10.5347 10.5845
9 2 0.215367 5.87154 0.0615067 7.20716 3.46093
7 2 5.98143 3.2551 0.131734 6.74749 11.7379
70 3 4.62525 4.61981 1.5143 0.845077 10.452
10 2 3.2065 6.07676 0.015734 12.611 5.41494
71 4 7.70588 4.72047 1.59359 -16.0263 17.5569
72 4 10.8912 4.60703 1.48919 -1.5704 15.0667
73 4 1.46143 7.73206 1.61704 -1.53078 5.22984
27 1 6.17919 6.4553 3.02945 2.50286 10.0154
74 3 4.70723 7.70646 1.35614 3.0401 9.59285
30 1 3.42147 9.07131 3.07122 1.1907 10.4766
31 2 6.04047 9.13689 2.94919 9.43557 3.90537
75 3 7.75722 7.74733 1.54391 3.18373 13.5573
76 4 10.7878 7.75172 1.5501 -6.47921 8.39798
77 5 1.84559 10.972 1.65609 -4.58201 14.0935
13 1 0.127758 9.6334 0.16927 -0.308402 4.35311
2 1 3.5555 12.2344 0.0744816 -0.414627 10.2926
14 1 3.31128 9.32167 0.0581393 3.17585 8.13885
78 3 4.87368 10.7229 1.59021 -0.469096 14.0942
79 4 7.78347 10.9105 1.47929 -10.5295 8.34802
80 5 10.9381 10.9668 1.64296 -3.03909 10.0166
81 5 1.50348 1.438 4.69677 -7.37053 6.69729
82 4 4.73327 1.62952 4.70589 -4.38986 7.41382
83 4 7.76427 1.47201 4.74998 -8.73384 11.2799
84 4 10.8939 1.6695 4.92203 -2.9119 14.612
24 2 9.50649 3.08335 3.18369 7.48481 7.61441
85 5 1.58305 4.64065 4.52489 -2.72 6.87881
37 1 0.125359 3.23978 6.15165 -2.09484 15.5786
86 4 4.76715 4.68131 4.70881 -10.5187 10.6216
40 2 9.00078 3.29235 6.23734 -0.0678248 10.8538
87 4 7.77292 4.68413 4.53093 -17.766 7.84984
21 2 12.464 3.24667 3.14518 9.18809 12.072
88 3 10.8766 4.71189 4.7284 -0.242529 8.57023
41 1 12.5054 6.18753 6.00299 2.54824 11.4149
25 1 12.3765 6.17216 3.33822 1.94344 9.32717
89 3 1.68995 7.7291 4.75563 -2.53457 16.3685
42 1 3.01413 6.32434 6.15537 3.89477 9.0095
26 1 3.47132 6.34415 3.22779 2.58109 10.1262
90 3 4.75002 7.72677 4.67275 -1.03705 10.0575
46 1 3.15613 9.08189 6.15198 1.82008 7.28986
28 1 9.18836 6.42414 3.23014 -1.03379 12.9795
91 3 7.78781 7.76634 4.72928 -3.64475 15.6683
48 1 9.11586 9.18428 6.19001 1.57767 9.30394
92 5 10.9315 7.72532 4.69156 -9.44774 14.4934
29 1 12.2903 9.221 3.16497 1.63507 5.80789
33 2 0.207121 12.2842 6.13713 4.94591 8.15317
93 5 1.59654 10.604 4.63033 -9.30391 13.2246
94 5 4.62982 10.7945 4.58595 -5.80697 13.2924
32 2 9.27718 9.30842 3.26307 10.484 10.3803
95 5 7.59728 10.6329 4.56852 -6.34725 17.0877
17 2 12.4332 12.2458 3.23557 10.3808 6.63464
96 5 10.8275 10.8223 4.80951 -2.38172 10.0756
38 1 2.72462 3.08718 6.5112 2.33889 6.25056
97 3 1.51107 1.57182 7.86903 -2.6474 13.5231
34 2 3.09493 0.216161 6.30372 9.85834 11.1216
50 2 3.09499 0.254592 9.29911 8.58462 5.61261
98 5 4.69733 1.56838 7.88151 -6.07803 11.4952
99 4 7.96607 1.56648 7.72317 -12.0888 11.7813
55 2 6.44676 3.08655 9.2712 9.54338 7.52176
100 4 11.0741 1.23644 7.87675 -9.65629 8.86608
101 5 1.33534 4.7706 7.92593 -2.05881 15.8074
102 4 4.67132 4.76915 7.8573 -9.44277 7.30408
44 1 9.11498 6.09849 6.2887 3.41776 6.17444
39 2 6.35408 3.44197 6.37419 2.73961 7.07013
103 3 7.73384 4.71111 7.91289 -1.52161 8.26813
104 4 10.8716 4.4093 7.62607 -4.23027 15.2018
105 3 1.6551 7.87585 7.81876 -1.90046 11.7812
58 1 3.01689 6.2899 9.28133 2.28486 12.228
61 2 0.405409 9.29589 9.28358 2.72352 5.98908
62 2 3.15256 9.05421 9.33284 6.92768 13.3155
106 3 4.68014 7.62959 7.67224 -0.195496 7.36982
43 1 6.41911 6.20352 6.31481 0.237831 7.83248
47 1 6.28935 9.2371 6.47709 2.81444 9.34203
107 5 7.73799 7.79536 7.91169 -12.8181 11.6379
108 4 10.9971 7.64345 7.882 -0.174463 9.50864
45 2 0.293488 9.34218 6.32695 6.601 7.72102
109 5 1.57216 10.8849 7.88126 -19.3063 10.9106
49 2 0.304364 12.3893 9.35257 5.08497 13.3117
35 1 6.25136 12.2431 6.37817 0.515797 14.6105
110 4 4.67623 10.9015 7.73949 -11.8047 10.0302
111 3 7.78183 10.8344 7.94576 -1.42915 8.27679
36 2 9.2175 12.157 6.39115 6.12368 8.40912
52 2 9.14701 12.2576 9.32898 8.11388 12.8729
112 4 10.9793 10.6122 7.86429 -12.0389 10.19
5 2 0.222186 3.0688 12.081 7.95048 10.0164
53 1 0.127975 2.86037 9.40878 -0.574317 7.48865
113 3 1.63573 1.64254 10.9095 0.978782 6.67603
114 4 4.76309 1.73527 10.9013 -10.2418 10.6269
3 2 6.36918 0.0426377 12.4597 13.6409 12.2949
115 3 7.87769 1.53546 10.9212 3.5303 9.63457
51 2 6.30698 0.0374365 9.44086 11.6775 8.59887
4 2 9.39249 0.259614 12.351 13.2919 12.2168
8 2 9.63007 2.97569 12.2512 8.42421 6.01149
56 1 9.56053 2.92999 9.47791 4.75288 7.77436
116 3 11.1164 1.49889 10.9508 3.42722 9.94535
54 2 3.06716 3.25844 9.40276 13.9834 7.75786
117 3 1.66601 4.61252 10.9867 -4.27527 5.94587
118 3 4.62331 4.71925 10.9385 -2.19938 7.46917
11 1 6.15148 6.13639 12.4012 5.33218 13.9336
59 1 6.31631 6.00482 9.53474 0.238586 3.45968
119 5 7.77426 4.52178 11.0855 -3.2838 12.306
60 1 9.23051 6.17667 9.58427 4.02766 7.22552
120 5 11.0927 4.70039 10.8236 -2.33957 12.3632
57 1 0.226584 6.42675 9.71588 -4.34491 10.878
121 5 1.62627 7.87365 11.0905 -15.8491 12.7299
122 4 4.63152 7.77705 10.7755 -16.9402 12.9992
15 2 6.27809 9.26866 12.2647 13.7605 7.49426
123 3 7.71532 7.89185 10.9002 -3.83406 16.9704
12 2 9.05212 6.45712 12.3376 6.24319 8.68411
16 1 9.08505 9.0477 12.3447 -1.95163 8.38141
124 5 10.94 7.72586 10.9304 -2.29543 17.73
1 1 0.00447976 12.3314 12.4921 3.63073 7.62054
125 5 1.59663 10.8493 11.0077 -9.49911 7.39568
126 5 4.79363 10.9903 10.8233 -11.3451 15.5145
64 2 9.22827 9.40485 9.47596 8.6216 9.63336
63 2 6.34318 9.40844 9.39942 10.0993 12.5061
127 3 7.75691 10.9636 10.9193 -1.48445 6.86988
128 4 10.8816 10.9373 10.8296 -4.37435 13.1334
ITEM: TIMESTEP
1031
ITEM: NUMBER OF ATOMS
128
ITEM: BOX BOUNDS pp pp pp
0.0000000000000000e+00 1.2511647994663599e+01
0.0000000000000000e+00 1.2405380448062900e+01
0.0000000000000000e+00 1.2493650882139701e+01
ITEM: ATOMS id type x y z v_sa_hydro v_sa_von
65 4 1.6512 1.54335 1.43787 -9.8347 7.23391
66 3 4.69183 1.56908 1.47069 -0.336758 12.3722
22 1 3.18957 3.22458 2.82422 3.38522 7.82024
23 1 6.00996 3.17106 2.80569 1.30385 6.59315
18 2 3.27134 12.3478 3.00322 11.9713 5.2529
19 1 6.18527 0.136152 2.85273 2.45693 5.39449
67 5 7.84843 1.6938 1.43356 -1.02369 3.62396
20 1 9.43791 0.0785078 3.07277 3.02573 5.10662
68 5 11.0219 1.61233 1.54484 -9.01805 7.00563
69 3 1.60494 4.63568 1.43592 -0.361561 8.37352
6 2 3.12156 3.27894 12.4316 12.7149 10.0251
9 2 0.246414 6.00915 12.3058 6.73921 8.05654
7 2 6.03155 3.1745 0.0350355 10.4132 7.71726
70 3 4.67074 4.71325 1.41445 -1.56851 5.11825
10 2 3.16837 6.11929 12.4612 15.2382 7.94484
71 4 7.92727 4.7955 1.59428 -5.98913 13.3868
72 4 11.093 4.73161 1.52289 -5.00658 9.14345
73 4 1.46085 7.63351 1.60658 -3.16856 9.08365
27 1 6.03632 6.28011 3.00251 5.02535 9.10815
74 3 4.70485 7.74877 1.4573 -0.0364471 12.4728
30 1 3.30424 9.23133 2.99622 5.87961 5.16846
31 2 6.19079 9.13117 3.06025 15.3257 6.52961
75 3 7.71818 7.80224 1.54946 1.19992 7.4928
76 4 10.7488 7.76555 1.58783 -4.34234 9.35149
77 5 1.56251 10.8156 1.60477 -7.51758 6.81146
13 1 -0.0545437 9.42977 12.4274 1.71954 4.6125
2 1 3.32856 12.1762 0.19009 -0.432273 4.84291
14 1 3.25562 9.33453 0.173367 4.60811 2.95674
78 3 4.79981 10.8085 1.57869 0.250615 9.39629
79 4 7.82292 10.8396 1.53893 -10.5714 7.57619
80 5 10.9048 10.8773 1.56364 -6.77041 9.56231
81 5 1.66592 1.55518 4.58733 -7.24943 6.32946
82 4 4.76035 1.587 4.65916 -6.2038 8.49096
83 4 7.85471 1.57248 4.65187 -6.5707 6.7835
84 4 10.9939 1.66309 4.78501 -4.73008 8.48169
24 2 9.59427 3.22899 3.15789 10.1963 6.85411
85 5 1.52881 4.7033 4.56386 -2.21642 8.12545
37 1 0.283683 2.93948 6.32785 1.46967 7.53431
86 4 4.59219 4.65772 4.70207 -8.66901 8.73728
40 2 9.23314 3.37327 6.17914 5.1522 10.1965
87 4 7.6895 4.64867 4.6559 -10.2963 5.96644
21 2 0.0991327 3.14239 3.04131 12.2927 7.11743
88 3 10.9447 4.65772 4.73291 3.11723 8.5762
41 1 0.240361 6.36727 6.1737 3.03699 5.34269
25 1 12.3493 6.3077 3.39878 0.877448 5.84647
89 3 1.58653 7.81346 4.65349 0.498858 9.16231
42 1 3.03497 6.43861 6.2505 5.7646 5.3875
26 1 3.28334 6.21629 2.93025 4.19499 10.1322
90 3 4.6322 7.7472 4.58293 1.0708 8.68979
46 1 3.12354 9.13137 6.21863 5.71306 5.15457
28 1 9.52015 6.19427 3.40728 0.567764 10.4021
91 3 7.74894 7.73736 4.5487 2.6252 5.39958
48 1 9.02659 9.22243 6.25227 4.09837 7.59438
92 5 10.8908 7.82222 4.87602 -9.07602 5.69096
29 1 12.3618 9.31555 3.25441 3.71392 5.13018
33 2 0.24736 0.0437359 6.21569 8.77793 7.90864
93 5 1.6114 10.8563 4.67254 -9.28116 4.29373
94 5 4.69336 10.8529 4.63103 -7.26722 10.0491
32 2 9.29312 9.2747 3.28321 11.771 9.35119
95 5 7.72665 10.8362 4.67689 -6.84139 6.41649
17 2 12.4982 12.3886 3.16271 12.0904 1.81814
96 5 10.9035 10.9407 4.78336 -4.1533 8.45337
38 1 3.04403 3.00785 6.41179 2.19284 5.13141
97 3 1.65366 1.49895 7.85954 -1.22905 9.55664
34 2 3.15539 0.0576808 6.2785 12.2344 5.42166
50 2 3.12928 0.0516506 9.3233 11.265 7.66446
98 5 4.7324 1.58653 7.86948 -9.60508 3.05064
99 4 7.90519 1.60518 7.85964 -10.5603 11.4208
55 2 6.26833 3.10301 9.46472 13.8013 5.83331
100 4 11.0379 1.34466 7.89868 -4.18018 5.08454
101 5 1.55105 4.66596 7.80664 -7.35362 10.0833
102 4 4.73587 4.77851 7.90466 -4.30917 6.38868
44 1 9.10984 6.25346 6.22884 5.51732 8.87533
39 2 6.28869 3.19463 6.45375 8.2626 5.15512
103 3 7.79222 4.64609 7.85567 3.02345 8.27477
104 4 10.8733 4.53914 7.74039 0.399099 4.5234
105 3 1.54352 7.80593 7.82764 -0.673707 6.15239
58 1 2.94405 6.22733 9.36716 2.38598 13.3163
61 2 0.210053 9.24469 9.36175 9.03046 6.26966
62 2 3.10684 9.24756 9.26594 10.5416 6.53634
106 3 4.59492 7.77701 7.78419 -0.314783 6.58894
43 1 6.1543 6.39042 6.08593 3.81518 8.40187
47 1 6.17341 9.08077 6.02844 4.18128 5.61542
107 5 7.59757 7.73426 7.8949 -2.64702 6.84027
108 4 10.8915 7.65402 7.91404 -5.04199 13.02
45 2 0.213486 9.24399 6.23408 10.4582 8.15394
109 5 1.59645 10.8624 7.79485 -13.3619 6.53991
49 2 0.266162 0.116531 9.43935 9.07102 8.983
35 1 6.33283 12.4165 6.41432 1.68064 6.02238
110 4 4.75199 10.7869 7.80176 -8.10028 8.75439
111 3 7.79377 10.8151 7.9144 0.988989 6.54712
36 2 9.143 12.139 6.39632 6.07328 6.2786
52 2 9.13562 12.3112 9.4488 9.49471 15.2518
112 4 10.9307 10.6884 7.80448 -6.58897 10.6282
5 2 0.12005 3.08793 12.3398 15.3755 7.32101
53 1 0.150719 2.9868 9.42987 5.95846 2.8521
113 3 1.62517 1.58956 10.9016 0.320803 5.17681
114 4 4.67526 1.55332 10.9783 -12.2278 8.56625
3 2 6.29157 0.00344788 12.4969 14.7358 10.1112
115 3 7.83099 1.44423 10.958 0.984069 10.5628
51 2 6.32741 12.3969 9.44053 14.0095 5.16894
4 2 9.38388 0.0657727 12.418 15.2772 5.43406
8 2 9.62502 2.9378 12.3481 7.73479 8.70378
56 1 9.4343 2.92795 9.60208 1.07233 5.27913
116 3 11.0068 1.53249 10.9461 0.654392 14.4993
54 2 3.07459 3.09845 9.41556 15.2239 6.66263
117 3 1.65306 4.60158 10.9327 -1.05113 2.93545
118 3 4.66262 4.61014 10.9612 -0.203625 8.25909
11 1 6.24671 6.23104 -0.00716011 6.91496 9.72165
59 1 6.42347 5.99864 9.61368 -1.07367 4.74558
119 5 7.8299 4.48438 11.0559 -7.03265 6.70899
60 1 9.12234 6.24414 9.51611 3.86695 6.57197
120 5 11.0093 4.65174 10.8873 -4.31274 9.24656
57 1 0.21276 6.23047 9.46873 1.97525 5.44351
121 5 1.6317 7.78001 10.998 -12.1379 3.71091
122 4 4.73193 7.69831 10.8233 -9.1709 11.0287
15 2 6.25592 9.26554 0.0368961 15.6111 8.06011
123 3 7.74956 7.81368 10.9807 -2.99588 8.70554
12 2 9.15256 6.44236 12.3362 6.50764 9.02778
16 1 9.25193 9.31842 12.3073 2.89755 6.74796
124 5 10.9346 7.76385 10.9422 -4.55669 12.8226
1 1 12.4537 0.030061 12.4048 3.54371 7.59168
125 5 1.64283 10.9288 10.9234 -7.58866 4.99172
126 5 4.76378 10.8311 10.9408 -12.5161 12.4695
64 2 9.10309 9.2887 9.45437 11.1817 9.84562
63 2 6.34565 9.42807 9.51719 6.89453 7.8602
127 3 7.77257 10.8936 10.9471 -2.17755 4.91787
128 4 10.8997 10.9224 10.8035 -8.42358 8.06897
