ITEM: TIMESTEP
1000
ITEM: NUMBER OF ATOMS
128
ITEM: BOX BOUNDS pp pp pp
0.0000000000000000e+00 1.2444875362668100e+01
0.0000000000000000e+00 1.2497755257467700e+01
0.0000000000000000e+00 1.2459782793725100e+01
ITEM: ATOMS id type x y z v_sa_hydro v_sa_von
65 4 1.47664 1.52707 1.57529 -8.66257 9.40387
22 1 3.36003 2.98119 2.89849 -1.03138 4.09939
23 2 6.03338 2.77989 2.92856 6.78001 4.73282
66 3 4.68787 1.51034 1.46112 -8.70735 12.5061
3 1 6.14712 0.0470531 0.0285711 4.72462 12.6212
67 3 7.71539 1.48248 1.47892 -3.60499 10.8148
4 2 9.23107 0.107579 0.171147 11.5131 9.20027
20 2 9.12499 0.0074478 3.0974 12.8015 8.62607
24 1 9.32245 2.68507 2.93283 -0.669183 8.11346
8 2 9.04144 2.89777 0.0663861 6.20968 17.3835
21 2 12.3984 3.0076 3.11392 11.525 14.5445
68 3 10.8423 1.51252 1.6133 -4.8307 14.6178
69 4 1.70734 4.61262 1.51093 -9.17227 9.48089
25 2 0.0537409 6.09315 3.08108 11.5351 10.5681
70 4 4.76204 4.65756 1.51206 -11.0153 13.2149
71 4 7.84222 4.65804 1.51996 -4.46099 12.2636
72 4 10.9758 4.62548 1.36778 -6.93671 15.2554
73 5 1.44998 7.85497 1.42324 -4.68598 8.61117
74 5 4.72047 7.89876 1.55598 -9.28641 11.0913
26 1 3.18534 6.48435 3.10007 1.14312 4.73944
27 2 6.35792 6.37297 3.03589 6.49999 6.66063
75 3 7.90642 7.88166 1.77201 0.704969 6.02883
11 1 6.34304 6.54037 0.134128 2.05115 12.1921
12 2 9.48078 6.51475 0.297609 6.64014 7.46137
28 2 9.33469 6.41579 2.94252 5.69894 11.3977
76 3 10.8983 7.79988 1.59561 -2.25054 12.5785
30 2 2.9624 9.45435 3.04419 12.319 8.37029
77 3 1.67921 10.9982 1.53081 3.14488 6.51991
18 2 3.21564 12.4264 2.8604 9.14459 11.23
19 1 6.17625 12.4742 2.73672 6.78256 7.00149
78 3 4.58585 10.9961 1.42138 -0.873475 6.92385
15 1 6.29717 9.51576 0.238968 5.82849 13.6031
31 1 6.28632 9.68449 2.88787 3.08492 11.7223
79 3 7.91195 10.9294 1.56276 -2.12958 12.6067
32 2 9.32195 9.54599 3.05075 14.0229 7.24036
16 2 9.52588 9.53332 0.255373 11.1503 11.1165
80 4 11.1156 11.0171 1.657 -7.26874 12.5816
81 4 1.54431 1.26627 4.81861 -4.6358 14.5918
82 5 4.65179 1.55877 4.71695 -4.73294 17.1284
83 4 7.72382 1.45688 4.75768 -8.10034 14.0618
17 1 12.1567 0.289461 3.21592 -6.09718 11.3773
84 3 10.7186 1.49449 4.6847 -2.32805 6.00684
37 1 12.1822 2.95509 6.05928 3.75269 5.08889
85 5 1.62974 4.4941 4.64546 3.73091 6.47187
86 4 4.73259 4.80884 4.56988 -3.42601 10.2358
87 5 7.70456 4.61234 4.50524 -1.28437 14.171
41 2 12.3681 5.92263 6.13053 11.6731 8.20557
88 5 10.762 4.50024 4.42001 -4.59664 11.683
89 4 1.40516 7.67325 4.60947 -12.0411 14.0085
42 1 3.05588 6.54026 6.19548 3.18939 8.50737
90 4 4.80744 8.05255 4.59251 -14.1447 11.6247
46 1 3.1229 9.27457 6.11171 3.78621 9.90388
91 4 7.79189 7.84271 4.75503 -8.05945 10.5647
29 2 12.2749 9.16945 3.13941 6.14037 10.0953
92 5 10.82 7.68104 4.53094 -12.1025 19.7912
93 5 1.39688 10.882 4.52226 -5.20397 16.1827
94 5 4.51506 11.0821 4.67195 -2.35932 19.4446
95 5 7.75006 11.0218 4.71834 -5.26349 11.0076
45 1 12.3153 9.49378 6.06452 1.42021 10.3874
48 2 9.5327 9.60839 6.18899 11.4965 8.55428
96 3 10.7904 10.9687 4.6448 -0.782447 10.6106
97 3 1.65339 1.64801 7.84189 1.26535 7.75292
34 1 3.30483 0.160465 6.55917 -3.81199 6.82973
38 2 3.12092 2.94483 6.44353 7.78593 4.53749
98 3 4.58665 1.56908 7.99325 -9.41023 9.99478
39 1 6.05561 2.9269 6.46069 0.724896 10.0019
54 2 3.18818 2.90776 9.29476 11.0629 11.3832
99 5 7.74988 1.56912 7.94372 -12.5245 8.32822
40 2 9.40072 3.10496 6.28073 10.7432 2.26082
100 4 10.8361 1.47612 7.86169 -8.74598 8.87552
101 4 1.49484 4.62517 7.76393 -9.23895 17.2244
57 1 0.266013 6.18285 9.12861 -1.32972 15.522
102 4 4.70584 4.61443 7.87014 -13.7145 7.03472
43 1 6.4407 6.14612 6.27378 -2.43518 5.15506
103 5 7.73351 4.60139 7.79894 -12.3561 15.4148
44 1 9.54834 6.00248 6.31828 1.75209 8.18653
104 3 10.8206 4.57879 7.74085 4.70351 7.89639
105 3 1.44842 7.84745 7.72752 3.50559 6.81555
106 4 4.80041 7.7716 7.741 -8.30587 6.36652
107 5 7.86228 7.76353 7.83478 -3.75802 9.6925
108 5 10.9776 7.80497 7.61118 -4.38411 17.2906
60 2 9.42469 6.25956 9.03096 8.18962 9.47036
109 4 1.54039 11.0136 7.74222 -8.82018 16.6864
35 1 6.14498 12.3194 6.48502 3.26356 8.90643
47 1 6.06269 9.57105 6.39368 -0.755837 8.41765
110 5 4.54109 10.9495 8.03205 -11.0503 9.01301
111 4 7.8341 10.9626 7.94674 -11.8996 12.8968
33 2 12.2122 12.4264 6.25456 7.16873 13.2124
36 1 9.51456 12.3417 6.31914 -2.36122 7.15698
64 1 9.52841 9.59524 9.18343 2.04091 13.6812
112 3 11.0482 11.0729 7.71658 -6.55468 19.0072
61 1 12.335 9.46216 9.09057 1.93239 9.79236
49 1 0.0934664 0.29497 9.54984 2.93903 7.48706
53 1 0.0329254 2.99706 9.63858 2.5084 5.00739
113 3 1.72433 1.62421 10.9486 -1.4029 9.4389
1 2 0.125249 0.000541376 12.1798 7.21086 8.8573
6 2 3.25191 2.84593 12.2526 9.12052 13.5802
50 2 3.17648 0.0264531 9.44135 9.94161 13.1547
7 2 6.1665 2.90718 12.3227 10.2593 14.0175
51 1 6.1306 0.074814 9.52791 3.4173 3.66125
114 3 4.75964 1.56398 10.9815 -12.7105 10.9655
55 1 6.11558 3.10415 9.45493 1.5794 12.1671
2 1 3.16145 0.0422112 12.4064 4.50008 7.60007
115 3 7.69587 1.73416 10.9551 -4.78166 12.9639
52 2 9.3029 0.0716 9.47261 8.96928 12.4957
116 5 10.8715 1.59101 11.2233 -7.61745 15.7652
5 2 0.293323 3.1619 12.4482 4.82914 6.5008
117 5 1.63591 4.70532 10.8307 -11.9849 9.84967
118 5 4.76091 4.78787 10.9646 -6.04911 17.4308
56 2 9.08484 3.13037 9.56169 10.7052 5.23447
59 2 6.25522 6.17614 9.47914 9.02441 6.50179
119 3 7.77792 4.82776 10.8729 6.10283 7.28704
120 4 10.8268 4.72282 10.7859 -2.62429 6.08939
9 1 0.142702 6.25498 12.41 -0.285287 5.98379
58 1 3.07746 6.38114 9.3907 4.86711 11.7787
121 3 1.51186 7.75844 10.8198 0.810837 8.70857
62 1 3.01463 9.07649 9.35182 2.73674 10.6547
10 2 3.085 6.45963 12.1233 9.67669 5.7744
122 3 4.76399 7.95196 10.8584 6.15729 3.60552
14 1 3.259 9.30282 12.3995 5.20392 8.03493
123 4 7.82061 7.89741 11.0118 -3.98166 7.96222
124 4 10.9458 7.92421 10.9389 -3.75607 10.075
13 2 0.00894819 9.47632 12.4449 11.0516 6.70293
125 5 1.68165 10.9312 10.7357 -1.76453 6.73864
126 3 4.64377 11.0433 10.9793 -4.68525 10.1812
63 2 6.24527 9.48673 9.67567 9.06082 9.25629
127 5 7.71768 11.012 11.0493 -11.431 8.75684
128 5 10.841 11.0595 10.9232 -6.69753 12.1385
ITEM: TIMESTEP
1039
ITEM: NUMBER OF ATOMS
128
ITEM: BOX BOUNDS pp pp pp
0.0000000000000000e+00 1.2444875362668100e+01
0.0000000000000000e+00 1.2497755257467700e+01
0.0000000000000000e+00 1.2459782793725100e+01
ITEM: ATOMS id type x y z v_sa_hydro v_sa_von
65 4 1.476 1.40343 1.58836 -5.80418 9.09249
22 1 3.2779 2.85225 2.91603 -0.19472 4.31517
23 2 6.18032 2.83677 2.88525 9.19899 6.29984
66 3 4.69857 1.4802 1.47869 -3.91977 7.58595
3 1 6.17138 12.4177 12.4776 9.7724 5.75307
67 3 7.73547 1.48671 1.51234 -3.43492 6.38918
4 2 9.17163 12.5056 0.0419366 11.6272 7.26928
20 2 9.27721 0.0565679 3.02939 15.7509 9.22893
24 1 9.27378 2.9333 2.9643 3.99657 6.37832
8 2 9.11535 2.87123 12.4808 9.685 8.72209
21 2 12.1975 3.04804 3.04847 11.8285 8.36723
68 3 10.8047 1.6164 1.53304 -0.0808821 7.67803
69 4 1.56686 4.61395 1.56081 -6.66094 9.53482
25 2 12.3449 6.36965 3.0633 12.6692 7.24479
70 4 4.68626 4.6878 1.63269 -5.13272 11.617
71 4 7.74501 4.68202 1.48797 -7.81453 14.4945
72 4 10.8274 4.7355 1.31303 -0.879379 11.6499
73 5 1.43683 7.88284 1.51785 -9.34871 5.73609
74 5 4.63481 7.85642 1.55723 -10.9917 4.83391
26 1 2.86989 6.47029 3.16292 0.692385 3.17685
27 2 6.42193 6.50728 2.94303 5.52997 4.75716
75 3 7.83143 7.94126 1.55897 -2.62897 5.55234
11 1 6.27959 6.48921 0.0484645 2.56208 8.49348
12 2 9.24246 6.5493 0.233843 4.8633 9.61704
28 2 9.31218 6.50219 2.99255 10.0896 5.76334
76 3 10.8429 7.92613 1.56895 1.35293 7.82246
30 2 3.02164 9.50299 2.97985 12.5174 4.35428
77 3 1.59551 10.9166 1.48845 -0.121581 6.70041
18 2 3.31374 12.4075 2.89371 9.60191 9.26172
19 1 6.19831 12.407 2.86788 6.20433 6.62925
78 3 4.64048 10.9145 1.50838 -2.10967 6.63901
15 1 6.20976 9.40834 0.0317791 8.80505 9.07235
31 1 6.29526 9.52149 2.88839 4.54716 6.84106
79 3 7.83512 10.972 1.5203 -0.93099 6.60351
32 2 9.32869 9.53547 3.02104 15.3336 4.64228
16 2 9.33752 9.44732 0.124778 12.5617 5.95036
80 4 10.9576 11.0904 1.48761 -10.1311 11.2854
81 4 1.54394 1.66151 4.76284 -6.10123 8.48064
82 5 4.67155 1.49657 4.68316 -4.51184 15.6439
83 4 7.71473 1.56331 4.65741 -10.2009 5.85827
17 1 12.1597 0.180949 3.27765 -1.52882 6.61662
84 3 10.7721 1.61703 4.64114 -0.967063 7.48736
37 1 12.1587 3.1654 5.96884 -0.539461 5.28639
85 5 1.5085 4.69709 4.6103 -3.93466 9.1206
86 4 4.60737 4.60125 4.75812 -1.52653 5.15239
87 5 7.68522 4.71655 4.57548 -0.258228 10.259
41 2 12.3863 6.14546 6.12399 11.0575 8.96446
88 5 10.7877 4.75851 4.45501 -8.30514 5.43344
89 4 1.43844 7.99323 4.7452 -5.30194 10.7508
42 1 2.88205 6.31575 6.26087 2.22353 3.52216
90 4 4.71369 7.72616 4.65955 -5.00467 7.18179
46 1 3.26377 9.33911 6.30423 2.69348 4.92993
91 4 7.77257 7.91061 4.69465 -7.65079 7.0387
29 2 12.3792 9.51796 3.05433 13.3834 8.43433
92 5 10.8182 7.93463 4.56481 -11.8657 11.986
93 5 1.53274 11.1346 4.52428 -1.88422 7.75558
94 5 4.63412 10.8918 4.6191 -4.47066 9.39271
95 5 7.78378 11.0046 4.65661 -5.0595 7.7893
45 1 12.215 9.78772 5.99698 -2.79601 3.45652
48 2 9.48339 9.65137 6.21395 10.657 7.39383
96 3 10.7921 11.0775 4.59196 -1.71409 9.92178
97 3 1.61021 1.5087 7.81904 2.50941 13.7292
34 1 3.22479 0.0764481 6.44159 3.24105 6.25263
38 2 3.24993 2.89824 6.49318 7.7175 4.34293
98 3 4.66037 1.54949 7.93616 -1.52951 6.14855
39 1 6.282 3.13204 6.46321 4.97916 10.3331
54 2 3.19286 2.92758 9.46549 12.6411 15.2871
99 5 7.78188 1.47769 7.85462 -9.24286 10.2859
40 2 9.32765 3.17564 6.04944 11.2574 5.08567
100 4 10.8794 1.79656 7.87368 1.18631 13.7523
101 4 1.52579 4.53974 7.7592 -2.9486 7.75067
57 1 0.141612 6.39337 9.32487 4.84932 8.2735
102 4 4.67438 4.61921 7.96203 -8.29315 8.49903
43 1 6.50513 5.9687 6.51216 0.45639 3.8372
103 5 8.06656 4.54467 8.00275 -1.10729 14.382
44 1 9.35533 6.1263 6.24416 4.38028 7.19915
104 3 11.0292 4.82425 7.63316 -0.79354 7.96357
105 3 1.59177 7.80641 7.79069 0.220611 9.4202
106 4 4.76989 7.68868 7.85928 -7.88769 6.17536
107 5 7.8855 7.82113 7.77963 -6.30981 8.83212
108 5 11.0795 7.92959 7.62998 -3.6573 8.83015
60 2 9.57647 6.40399 9.10185 7.11666 9.44419
109 4 1.44656 10.9032 7.70258 -3.65128 9.7414
35 1 5.99487 12.4306 6.44822 2.78593 6.77203
47 1 6.08178 9.54603 6.38448 0.760655 2.77477
110 5 4.54765 10.9133 8.01068 -9.47635 6.2012
111 4 7.80818 10.9157 7.85677 -10.466 8.52345
33 2 12.2659 0.108101 6.18143 15.3032 6.02561
36 1 9.49785 0.051335 6.23384 3.42335 7.12947
64 1 9.6147 9.37176 9.2127 1.94656 5.74271
112 3 10.9006 11.1158 7.76518 3.12508 7.73566
61 1 0.116981 9.20787 9.47138 1.90494 9.44023
49 1 0.0958232 0.175294 9.3573 4.55169 8.32679
53 1 0.281308 2.87404 9.52163 -1.02498 6.25933
113 3 1.68539 1.50725 10.9432 -3.51334 8.41847
1 2 0.244595 12.4376 12.26 6.49178 7.51994
6 2 3.20352 2.90731 12.4391 14.3715 6.46827
50 2 3.14568 0.178458 9.40693 11.4557 15.2189
7 2 6.20198 2.85974 12.4392 13.5227 7.46713
51 1 6.12171 0.0280391 9.50997 5.2585 2.76028
114 3 4.66884 1.51902 10.9615 -2.93311 7.25294
55 1 6.26757 2.99951 9.53746 7.732 6.94036
2 1 3.22441 12.4355 12.4401 7.48706 3.16733
115 3 7.73719 1.45781 11.0026 -4.65794 7.83551
52 2 9.35869 0.0168117 9.44781 11.1452 8.53878
116 5 10.9059 1.50772 11.0512 -9.84946 10.5402
5 2 0.177027 3.02092 12.3936 10.8574 5.75647
117 5 1.67637 4.61913 10.8892 -6.8016 8.70101
118 5 4.78262 4.66653 11.0358 -1.07993 10.5486
56 2 9.07921 2.83264 9.70025 1.79197 6.04424
59 2 6.49195 6.07112 9.4465 10.1628 8.06031
119 3 7.83467 4.59843 11.0186 4.91753 12.7274
120 4 10.8137 4.57222 10.612 2.54402 11.3886
9 1 0.177437 6.14771 -0.114134 0.531421 7.4203
58 1 2.95295 6.4045 9.41011 2.89973 9.8393
121 3 1.59688 7.80687 10.9543 -3.82487 6.47798
62 1 3.09655 9.08888 9.42207 2.49486 12.7645
10 2 3.1205 6.40125 12.3931 12.4209 3.28125
122 3 4.67808 7.78813 10.9392 2.17753 6.03519
14 1 3.13584 9.37442 12.4216 6.45968 7.9516
123 4 7.8288 7.78484 10.863 -9.40952 6.37878
124 4 10.9378 7.74567 11.0111 -8.09647 10.4038
13 2 0.105296 9.49938 12.4257 11.7435 7.07164
125 5 1.69942 10.9328 10.8012 -9.93966 8.7957
126 3 4.70279 10.882 10.9678 -1.85066 9.52479
63 2 6.08669 9.33307 9.50363 10.8341 8.25031
127 5 7.79692 10.8946 10.9399 -10.2059 4.26367
128 5 10.9544 10.9281 10.8582 -7.77091 8.2207
