/home/sez26/TIGP-IIP/HEA_dislocation/Perfect/HEA_I.lmp (written by ASE) 

11664 	 atoms 
5  atom types
0.0      56.304000000000002  xlo xhi
0.0      56.304000000000002  ylo yhi
0.0      56.304000000000002  zlo zhi


Atoms 

     1   4                       0                       0                       0
     2   2      3.1280000000000001                       0                       0
     3   1      6.2560000000000002                       0                       0
     4   2      9.3840000000000003                       0                       0
     5   4                  12.512                       0                       0
     6   5      15.640000000000001                       0                       0
     7   2      18.768000000000001                       0                       0
     8   3      21.896000000000001                       0                       0
     9   2      25.024000000000001                       0                       0
    10   1      28.152000000000001                       0                       0
    11   1      31.280000000000001                       0                       0
    12   1      34.408000000000001                       0                       0
    13   2      37.536000000000001                       0                       0
    14   1      40.664000000000001                       0                       0
    15   2      43.792000000000002                       0                       0
    16   3      46.920000000000002                       0                       0
    17   1      50.048000000000002                       0                       0
    18   5      53.176000000000002                       0                       0
    19   1                       0      3.1280000000000001                       0
    20   1      3.1280000000000001      3.1280000000000001                       0
    21   1      6.2560000000000002      3.1280000000000001                       0
    22   2      9.3840000000000003      3.1280000000000001                       0
    23   5                  12.512      3.1280000000000001                       0
    24   1      15.640000000000001      3.1280000000000001                       0
    25   3      18.768000000000001      3.1280000000000001                       0
    26   2      21.896000000000001      3.1280000000000001                       0
    27   2      25.024000000000001      3.1280000000000001                       0
    28   2      28.152000000000001      3.1280000000000001                       0
    29   1      31.280000000000001      3.1280000000000001                       0
    30   5      34.408000000000001      3.1280000000000001                       0
    31   2      37.536000000000001      3.1280000000000001                       0
    32   2      40.664000000000001      3.1280000000000001                       0
    33   4      43.792000000000002      3.1280000000000001                       0
    34   3      46.920000000000002      3.1280000000000001                       0
    35   1      50.048000000000002      3.1280000000000001                       0
    36   1      53.176000000000002      3.1280000000000001                       0
    37   1                       0      6.2560000000000002                       0
    38   2      3.1280000000000001      6.2560000000000002                       0
    39   3      6.2560000000000002      6.2560000000000002                       0
    40   1      9.3840000000000003      6.2560000000000002                       0
    41   1                  12.512      6.2560000000000002                       0
    42   5      15.640000000000001      6.2560000000000002                       0
    43   1      18.768000000000001      6.2560000000000002                       0
    44   1      21.896000000000001      6.2560000000000002                       0
    45   5      25.024000000000001      6.2560000000000002                       0
    46   1      28.152000000000001      6.2560000000000002                       0
    47   5      31.280000000000001      6.2560000000000002                       0
    48   2      34.408000000000001      6.2560000000000002                       0
    49   5      37.536000000000001      6.2560000000000002                       0
    50   2      40.664000000000001      6.2560000000000002                       0
    51   1      43.792000000000002      6.2560000000000002                       0
    52   4      46.920000000000002      6.2560000000000002                       0
    53   4      50.048000000000002      6.2560000000000002                       0
    54   4      53.176000000000002      6.2560000000000002                       0
    55   4                       0      9.3840000000000003                       0
    56   2      3.1280000000000001      9.3840000000000003                       0
    57   1      6.2560000000000002      9.3840000000000003                       0
    58   2      9.3840000000000003      9.3840000000000003                       0
    59   3                  12.512      9.3840000000000003                       0
    60   4      15.640000000000001      9.3840000000000003                       0
    61   1      18.768000000000001      9.3840000000000003                       0
    62   2      21.896000000000001      9.3840000000000003                       0
    63   5      25.024000000000001      9.3840000000000003                       0
    64   3      28.152000000000001      9.3840000000000003                       0
    65   3      31.280000000000001      9.3840000000000003                       0
    66   2      34.408000000000001      9.3840000000000003                       0
    67   4      37.536000000000001      9.3840000000000003                       0
    68   1      40.664000000000001      9.3840000000000003                       0
    69   1      43.792000000000002      9.3840000000000003                       0
    70   2      46.920000000000002      9.3840000000000003                       0
    71   1      50.048000000000002      9.3840000000000003                       0
    72   2      53.176000000000002      9.3840000000000003                       0
    73   1                       0                  12.512                       0
    74   3      3.1280000000000001                  12.512                       0
    75   2      6.2560000000000002                  12.512                       0
    76   5      9.3840000000000003                  12.512                       0
    77   3                  12.512                  12.512                       0
    78   2      15.640000000000001                  12.512                       0
    79   2      18.768000000000001                  12.512                       0
    80   2      21.896000000000001                  12.512                       0
    81   1      25.024000000000001                  12.512                       0
    82   3      28.152000000000001                  12.512                       0
    83   5      31.280000000000001                  12.512                       0
    84   2      34.408000000000001                  12.512                       0
    85   1      37.536000000000001                  12.512                       0
    86   1      40.664000000000001                  12.512                       0
    87   3      43.792000000000002                  12.512                       0
    88   5      46.920000000000002                  12.512                       0
    89   5      50.048000000000002                  12.512                       0
    90   5      53.176000000000002                  12.512                       0
    91   1                       0      15.640000000000001                       0
    92   1      3.1280000000000001      15.640000000000001                       0
    93   4      6.2560000000000002      15.640000000000001                       0
    94   1      9.3840000000000003      15.640000000000001                       0
    95   2                  12.512      15.640000000000001                       0
    96   1      15.640000000000001      15.640000000000001                       0
    97   4      18.768000000000001      15.640000000000001                       0
    98   3      21.896000000000001      15.640000000000001                       0
    99   2      25.024000000000001      15.640000000000001                       0
   100   1      28.152000000000001      15.640000000000001                       0
   101   5      31.280000000000001      15.640000000000001                       0
   102   3      34.408000000000001      15.640000000000001                       0
   103   3      37.536000000000001      15.640000000000001                       0
   104   2      40.664000000000001      15.640000000000001                       0
   105   1      43.792000000000002      15.640000000000001                       0
   106   3      46.920000000000002      15.640000000000001                       0
   107   4      50.048000000000002      15.640000000000001                       0
   108   5      53.176000000000002      15.640000000000001                       0
   109   1                       0      18.768000000000001                       0
   110   1      3.1280000000000001      18.768000000000001                       0
   111   1      6.2560000000000002      18.768000000000001                       0
   112   2      9.3840000000000003      18.768000000000001                       0
   113   5                  12.512      18.768000000000001                       0
   114   1      15.640000000000001      18.768000000000001                       0
   115   1      18.768000000000001      18.768000000000001                       0
   116   2      21.896000000000001      18.768000000000001                       0
   117   3      25.024000000000001      18.768000000000001                       0
   118   1      28.152000000000001      18.768000000000001                       0
   119   2      31.280000000000001      18.768000000000001                       0
   120   1      34.408000000000001      18.768000000000001                       0
   121   2      37.536000000000001      18.768000000000001                       0
   122   3      40.664000000000001      18.768000000000001                       0
   123   2      43.792000000000002      18.768000000000001                       0
   124   4      46.920000000000002      18.768000000000001                       0
   125   1      50.048000000000002      18.768000000000001                       0
   126   1      53.176000000000002      18.768000000000001                       0
   127   5                       0      21.896000000000001                       0
   128   5      3.1280000000000001      21.896000000000001                       0
   129   3      6.2560000000000002      21.896000000000001                       0
   130   1      9.3840000000000003      21.896000000000001                       0
   131   4                  12.512      21.896000000000001                       0
   132   2      15.640000000000001      21.896000000000001                       0
   133   2      18.768000000000001      21.896000000000001                       0
   134   2      21.896000000000001      21.896000000000001                       0
   135   1      25.024000000000001      21.896000000000001                       0
   136   4      28.152000000000001      21.896000000000001                       0
   137   1      31.280000000000001      21.896000000000001                       0
   138   3      34.408000000000001      21.896000000000001                       0
   139   1      37.536000000000001      21.896000000000001                       0
   140   2      40.664000000000001      21.896000000000001                       0
   141   5      43.792000000000002      21.896000000000001                       0
   142   1      46.920000000000002      21.896000000000001                       0
   143   3      50.048000000000002      21.896000000000001                       0
   144   1      53.176000000000002      21.896000000000001                       0
   145   3                       0      25.024000000000001                       0
   146   5      3.1280000000000001      25.024000000000001                       0
   147   1      6.2560000000000002      25.024000000000001                       0
   148   2      9.3840000000000003      25.024000000000001                       0
   149   5                  12.512      25.024000000000001                       0
   150   1      15.640000000000001      25.024000000000001                       0
   151   5      18.768000000000001      25.024000000000001                       0
   152   2      21.896000000000001      25.024000000000001                       0
   153   2      25.024000000000001      25.024000000000001                       0
   154   4      28.152000000000001      25.024000000000001                       0
   155   3      31.280000000000001      25.024000000000001                       0
   156   1      34.408000000000001      25.024000000000001                       0
   157   3      37.536000000000001      25.024000000000001                       0
   158   2      40.664000000000001      25.024000000000001                       0
   159   1      43.792000000000002      25.024000000000001                       0
   160   5      46.920000000000002      25.024000000000001                       0
   161   3      50.048000000000002      25.024000000000001                       0
   162   4      53.176000000000002      25.024000000000001                       0
   163   4                       0      28.152000000000001                       0
   164   1      3.1280000000000001      28.152000000000001                       0
   165   4      6.2560000000000002      28.152000000000001                       0
   166   2      9.3840000000000003      28.152000000000001                       0
   167   2                  12.512      28.152000000000001                       0
   168   4      15.640000000000001      28.152000000000001                       0
   169   4      18.768000000000001      28.152000000000001                       0
   170   1      21.896000000000001      28.152000000000001                       0
   171   4      25.024000000000001      28.152000000000001                       0
   172   1      28.152000000000001      28.152000000000001                       0
   173   4      31.280000000000001      28.152000000000001                       0
   174   4      34.408000000000001      28.152000000000001                       0
   175   1      37.536000000000001      28.152000000000001                       0
   176   5      40.664000000000001      28.152000000000001                       0
   177   1      43.792000000000002      28.152000000000001                       0
   178   2      46.920000000000002      28.152000000000001                       0
   179   3      50.048000000000002      28.152000000000001                       0
   180   4      53.176000000000002      28.152000000000001                       0
   181   2                       0      31.280000000000001                       0
   182   3      3.1280000000000001      31.280000000000001                       0
   183   3      6.2560000000000002      31.280000000000001                       0
   184   2      9.3840000000000003      31.280000000000001                       0
   185   1                  12.512      31.280000000000001                       0
   186   1      15.640000000000001      31.280000000000001                       0
   187   4      18.768000000000001      31.280000000000001                       0
   188   4      21.896000000000001      31.280000000000001                       0
   189   2      25.024000000000001      31.280000000000001                       0
   190   3      28.152000000000001      31.280000000000001                       0
   191   5      31.280000000000001      31.280000000000001                       0
   192   1      34.408000000000001      31.280000000000001                       0
   193   5      37.536000000000001      31.280000000000001                       0
   194   3      40.664000000000001      31.280000000000001                       0
   195   5      43.792000000000002      31.280000000000001                       0
   196   1      46.920000000000002      31.280000000000001                       0
   197   3      50.048000000000002      31.280000000000001                       0
   198   2      53.176000000000002      31.280000000000001                       0
   199   2                       0      34.408000000000001                       0
   200   4      3.1280000000000001      34.408000000000001                       0
   201   2      6.2560000000000002      34.408000000000001                       0
   202   4      9.3840000000000003      34.408000000000001                       0
   203   3                  12.512      34.408000000000001                       0
   204   1      15.640000000000001      34.408000000000001                       0
   205   5      18.768000000000001      34.408000000000001                       0
   206   4      21.896000000000001      34.408000000000001                       0
   207   2      25.024000000000001      34.408000000000001                       0
   208   3      28.152000000000001      34.408000000000001                       0
   209   3      31.280000000000001      34.408000000000001                       0
   210   2      34.408000000000001      34.408000000000001                       0
   211   1      37.536000000000001      34.408000000000001                       0
   212   5      40.664000000000001      34.408000000000001                       0
   213   2      43.792000000000002      34.408000000000001                       0
   214   5      46.920000000000002      34.408000000000001                       0
   215   3      50.048000000000002      34.408000000000001                       0
   216   2      53.176000000000002      34.408000000000001                       0
   217   5                       0      37.536000000000001                       0
   218   5      3.1280000000000001      37.536000000000001                       0
   219   4      6.2560000000000002      37.536000000000001                       0
   220   1      9.3840000000000003      37.536000000000001                       0
   221   3                  12.512      37.536000000000001                       0
   222   4      15.640000000000001      37.536000000000001                       0
   223   1      18.768000000000001      37.536000000000001                       0
   224   3      21.896000000000001      37.536000000000001                       0
   225   3      25.024000000000001      37.536000000000001                       0
   226   1      28.152000000000001      37.536000000000001                       0
   227   1      31.280000000000001      37.536000000000001                       0
   228   2      34.408000000000001      37.536000000000001                       0
   229   4      37.536000000000001      37.536000000000001                       0
   230   2      40.664000000000001      37.536000000000001                       0
   231   5      43.792000000000002      37.536000000000001                       0
   232   2      46.920000000000002      37.536000000000001                       0
   233   5      50.048000000000002      37.536000000000001                       0
   234   5      53.176000000000002      37.536000000000001                       0
   235   2                       0      40.664000000000001                       0
   236   2      3.1280000000000001      40.664000000000001                       0
   237   3      6.2560000000000002      40.664000000000001                       0
   238   1      9.3840000000000003      40.664000000000001                       0
   239   1                  12.512      40.664000000000001                       0
   240   2      15.640000000000001      40.664000000000001                       0
   241   2      18.768000000000001      40.664000000000001                       0
   242   2      21.896000000000001      40.664000000000001                       0
   243   5      25.024000000000001      40.664000000000001                       0
   244   3      28.152000000000001      40.664000000000001                       0
   245   2      31.280000000000001      40.664000000000001                       0
   246   2      34.408000000000001      40.664000000000001                       0
   247   3      37.536000000000001      40.664000000000001                       0
   248   2      40.664000000000001      40.664000000000001                       0
   249   2      43.792000000000002      40.664000000000001                       0
   250   2      46.920000000000002      40.664000000000001                       0
   251   1      50.048000000000002      40.664000000000001                       0
   252   1      53.176000000000002      40.664000000000001                       0
   253   5                       0      43.792000000000002                       0
   254   1      3.1280000000000001      43.792000000000002                       0
   255   2      6.2560000000000002      43.792000000000002                       0
   256   2      9.3840000000000003      43.792000000000002                       0
   257   4                  12.512      43.792000000000002                       0
   258   5      15.640000000000001      43.792000000000002                       0
   259   2      18.768000000000001      43.792000000000002                       0
   260   5      21.896000000000001      43.792000000000002                       0
   261   5      25.024000000000001      43.792000000000002                       0
   262   4      28.152000000000001      43.792000000000002                       0
   263   2      31.280000000000001      43.792000000000002                       0
   264   5      34.408000000000001      43.792000000000002                       0
   265   4      37.536000000000001      43.792000000000002                       0
   266   1      40.664000000000001      43.792000000000002                       0
   267   2      43.792000000000002      43.792000000000002                       0
   268   2      46.920000000000002      43.792000000000002                       0
   269   1      50.048000000000002      43.792000000000002                       0
   270   1      53.176000000000002      43.792000000000002                       0
   271   2                       0      46.920000000000002                       0
   272   4      3.1280000000000001      46.920000000000002                       0
   273   1      6.2560000000000002      46.920000000000002                       0
   274   5      9.3840000000000003      46.920000000000002                       0
   275   2                  12.512      46.920000000000002                       0
   276   5      15.640000000000001      46.920000000000002                       0
   277   3      18.768000000000001      46.920000000000002                       0
   278   4      21.896000000000001      46.920000000000002                       0
   279   4      25.024000000000001      46.920000000000002                       0
   280   2      28.152000000000001      46.920000000000002                       0
   281   5      31.280000000000001      46.920000000000002                       0
   282   5      34.408000000000001      46.920000000000002                       0
   283   3      37.536000000000001      46.920000000000002                       0
   284   1      40.664000000000001      46.920000000000002                       0
   285   5      43.792000000000002      46.920000000000002                       0
   286   1      46.920000000000002      46.920000000000002                       0
   287   5      50.048000000000002      46.920000000000002                       0
   288   2      53.176000000000002      46.920000000000002                       0
   289   1                       0      50.048000000000002                       0
   290   1      3.1280000000000001      50.048000000000002                       0
   291   3      6.2560000000000002      50.048000000000002                       0
   292   5      9.3840000000000003      50.048000000000002                       0
   293   2                  12.512      50.048000000000002                       0
   294   2      15.640000000000001      50.048000000000002                       0
   295   1      18.768000000000001      50.048000000000002                       0
   296   2      21.896000000000001      50.048000000000002                       0
   297   1      25.024000000000001      50.048000000000002                       0
   298   2      28.152000000000001      50.048000000000002                       0
   299   2      31.280000000000001      50.048000000000002                       0
   300   2      34.408000000000001      50.048000000000002                       0
   301   3      37.536000000000001      50.048000000000002                       0
   302   3      40.664000000000001      50.048000000000002                       0
   303   2      43.792000000000002      50.048000000000002                       0
   304   4      46.920000000000002      50.048000000000002                       0
   305   4      50.048000000000002      50.048000000000002                       0
   306   3      53.176000000000002      50.048000000000002                       0
   307   1                       0      53.176000000000002                       0
   308   4      3.1280000000000001      53.176000000000002                       0
   309   3      6.2560000000000002      53.176000000000002                       0
   310   4      9.3840000000000003      53.176000000000002                       0
   311   1                  12.512      53.176000000000002                       0
   312   5      15.640000000000001      53.176000000000002                       0
   313   3      18.768000000000001      53.176000000000002                       0
   314   2      21.896000000000001      53.176000000000002                       0
   315   3      25.024000000000001      53.176000000000002                       0
   316   2      28.152000000000001      53.176000000000002                       0
   317   2      31.280000000000001      53.176000000000002                       0
   318   4      34.408000000000001      53.176000000000002                       0
   319   3      37.536000000000001      53.176000000000002                       0
   320   2      40.664000000000001      53.176000000000002                       0
   321   1      43.792000000000002      53.176000000000002                       0
   322   2      46.920000000000002      53.176000000000002                       0
   323   1      50.048000000000002      53.176000000000002                       0
   324   1      53.176000000000002      53.176000000000002                       0
   325   4                       0                       0      3.1280000000000001
   326   2      3.1280000000000001                       0      3.1280000000000001
   327   2      6.2560000000000002                       0      3.1280000000000001
   328   4      9.3840000000000003                       0      3.1280000000000001
   329   5                  12.512                       0      3.1280000000000001
   330   4      15.640000000000001                       0      3.1280000000000001
   331   1      18.768000000000001                       0      3.1280000000000001
   332   2      21.896000000000001                       0      3.1280000000000001
   333   2      25.024000000000001                       0      3.1280000000000001
   334   4      28.152000000000001                       0      3.1280000000000001
   335   2      31.280000000000001                       0      3.1280000000000001
   336   5      34.408000000000001                       0      3.1280000000000001
   337   3      37.536000000000001                       0      3.1280000000000001
   338   3      40.664000000000001                       0      3.1280000000000001
   339   3      43.792000000000002                       0      3.1280000000000001
   340   4      46.920000000000002                       0      3.1280000000000001
   341   2      50.048000000000002                       0      3.1280000000000001
   342   4      53.176000000000002                       0      3.1280000000000001
   343   2                       0      3.1280000000000001      3.1280000000000001
   344   5      3.1280000000000001      3.1280000000000001      3.1280000000000001
   345   2      6.2560000000000002      3.1280000000000001      3.1280000000000001
   346   2      9.3840000000000003      3.1280000000000001      3.1280000000000001
   347   1                  12.512      3.1280000000000001      3.1280000000000001
   348   3      15.640000000000001      3.1280000000000001      3.1280000000000001
   349   4      18.768000000000001      3.1280000000000001      3.1280000000000001
   350   3      21.896000000000001      3.1280000000000001      3.1280000000000001
   351   2      25.024000000000001      3.1280000000000001      3.1280000000000001
   352   4      28.152000000000001      3.1280000000000001      3.1280000000000001
   353   5      31.280000000000001      3.1280000000000001      3.1280000000000001
   354   3      34.408000000000001      3.1280000000000001      3.1280000000000001
   355   1      37.536000000000001      3.1280000000000001      3.1280000000000001
   356   1      40.664000000000001      3.1280000000000001      3.1280000000000001
   357   1      43.792000000000002      3.1280000000000001      3.1280000000000001
   358   1      46.920000000000002      3.1280000000000001      3.1280000000000001