ITEM: TIMESTEP
50000
ITEM: NUMBER OF ATOMS
11664
ITEM: BOX BOUNDS pp pp pp
0.0000000000000000e+00 5.6160338559843801e+01
0.0000000000000000e+00 5.6171643561034102e+01
0.0000000000000000e+00 5.6157248473671601e+01
ITEM: ATOMS id type x y z v_sa_hydro v_sa_von
5833 4 1.54127 1.42847 1.62863 -8.49839 8.89409
5834 5 4.69081 1.60463 1.53892 0.675025 6.86921
5835 3 7.78214 1.57102 1.71504 1.12317 9.92902
3 1 6.26503 0.0397662 0.00156077 7.9801 8.53972
21 1 6.49726 2.81695 0.0152991 4.07109 7.86642
5836 3 10.9947 1.27125 1.70689 3.91546 13.4419
4 1 9.27131 0.112038 0.0581674 4.85055 6.25216
22 1 9.31789 2.93718 0.175202 5.03998 12.3613
5837 3 14.0471 1.4738 1.80776 -4.85833 17.4954
23 1 12.7042 2.77758 0.381257 -3.19418 6.95706
6 1 15.3711 0.00134791 0.105702 0.29812 11.4897
24 2 15.6213 2.8114 0.368715 8.59429 5.89548
5838 3 17.2358 1.42003 1.60985 6.00759 8.57956
5839 5 20.1465 1.50762 1.66384 -2.5537 5.85235
5840 5 23.4286 1.57442 1.51699 0.0211423 4.22106
5841 5 26.6367 1.49104 1.53087 -8.2677 9.81541
5842 3 29.7604 1.58389 1.49732 2.50626 10.7451
5843 4 32.7894 1.47785 1.61797 -14.2238 16.4125
5844 4 35.8443 1.3785 1.49908 -17.3798 13.6208
14 2 40.8028 0.00731131 0.040783 9.936 3.58718
5845 4 39.033 1.46391 1.66079 -9.7891 15.9187
5846 4 42.1317 1.64452 1.56906 -11.3113 7.33534
5847 5 45.2225 1.66249 1.57042 -9.62481 5.30974
5848 4 48.1665 1.54406 1.73793 -6.28299 9.51007
5849 4 51.3251 1.67301 1.57554 -1.46 4.62425
5850 5 54.5295 1.64855 1.67916 -9.64567 8.63896
5851 4 1.74071 4.50526 1.64382 -8.9925 11.7515
5852 3 4.7397 4.62231 1.68061 2.51675 6.29504
5853 5 7.88026 4.54811 1.71034 -13.5625 13.0783
5854 5 11.0528 4.51678 1.47617 -3.66756 11.5071
5855 4 14.1643 4.59172 1.68214 -13.1975 11.3811
5856 4 17.2588 4.67563 1.6686 -1.70617 13.5429
5857 4 20.3918 4.87521 1.46718 -5.28926 8.90557
5858 4 23.5929 4.64415 1.43348 -6.19075 5.48822
351 2 25.2025 3.0585 2.93643 9.85993 6.06537
5859 3 26.6348 4.48463 1.59442 4.18441 8.53836
5860 4 29.7298 4.66661 1.6192 -10.8911 9.33818
5861 3 32.7024 4.73441 1.70268 0.846227 4.93551
30 1 34.0925 3.07393 0.149486 3.79612 12.9956
5862 4 35.8857 4.57038 1.61853 -15.5129 4.11737
5863 4 38.8915 4.51115 1.44287 -11.6554 14.1685
5864 5 41.9801 4.85233 1.52448 -11.0447 19.7591
5865 5 45.1936 4.71025 1.51932 -13.9801 6.65367
5866 5 48.295 4.86569 1.49954 -9.9017 12.1838
36 2 53.1707 3.17759 0.0839605 9.28729 4.78289
5867 4 51.4807 4.74446 1.60532 -12.1659 14.24
5868 3 54.6666 4.67562 1.62171 -4.5294 13.4506
19 1 56.1467 3.33282 0.156661 0.413539 7.44889
5869 4 1.74078 7.68779 1.50217 -16.2925 10.6795
5870 5 4.78457 7.94767 1.58135 -7.75242 15.3105
38 2 3.49362 6.08121 0.0183959 9.45155 12.741
5871 5 7.76214 7.60099 1.68297 -21.12 15.5888
39 1 6.25091 6.22687 0.189582 -0.114489 12.4981
5872 5 10.9358 7.77286 1.47165 -14.3408 13.8911
40 2 9.34051 5.9566 0.0620473 9.45023 2.53556
5873 3 14.0278 7.72907 1.68905 -6.13629 13.8158
41 1 12.611 6.36625 0.171777 -2.73094 9.12653
5874 5 17.3176 7.99218 1.7365 -9.84958 12.9821
42 1 15.5781 6.47517 0.515379 0.84844 7.92432
43 2 18.7093 6.48644 0.284758 6.67755 6.45511
5875 3 20.3523 7.7481 1.4575 -3.79909 19.7791
44 1 21.8362 6.38633 0.0877462 -2.85092 13.3026
5876 4 23.7279 7.87162 1.38495 -6.50879 10.2242
5877 3 26.6423 7.54421 1.7663 -1.22939 15.0821
46 2 28.0804 6.21752 0.0629514 10.5157 12.0193
5878 3 29.474 7.75496 1.72305 -2.47083 8.46545
48 2 34.3199 6.04381 0.242466 7.07433 12.7014
5879 4 32.5489 7.79597 1.5157 -5.80172 14.7067
5880 4 35.7604 7.81362 1.33531 -8.32997 10.5065
5881 5 39.0906 7.81709 1.63484 -1.07155 6.93812
375 2 43.4792 6.24731 2.94522 7.22989 4.53162
5882 3 42.1983 7.77525 1.64448 0.307116 9.23942
51 2 43.7866 6.229 0.0298278 10.1839 3.43818
5883 5 45.1986 7.88395 1.48164 -13.7072 15.2316
376 1 46.8659 6.30677 2.95076 -0.934726 16.9009
5884 3 48.4566 7.90143 1.51452 -3.21097 5.01487
53 1 50.0011 6.43217 0.00517185 0.333108 8.86485
378 2 53.1519 6.18982 2.91533 8.06514 8.43726
5885 5 51.4752 7.81904 1.44334 -14.253 12.4684
5886 5 54.7492 7.88506 1.64221 -6.75132 13.5269
37 1 56.0336 6.2218 0.147555 1.50836 11.7767
5887 4 1.62451 10.7356 1.45959 -19.7788 14.7937
5888 5 4.78283 11.0033 1.56885 -9.45333 10.0806
5889 5 7.99229 10.8081 1.58345 -2.27542 5.83551
5890 4 11.1441 10.9249 1.67928 -6.33492 8.65336
5891 3 14.0082 10.9483 1.42632 3.54035 15.6442
59 1 12.7373 9.06626 0.0447937 -0.0312879 10.7743
60 1 15.6002 9.23164 0.32295 1.81206 6.23577
5892 3 17.0344 10.9086 1.42677 -1.10234 9.77582
5893 4 20.1412 10.6317 1.63991 -6.07912 12.1953
5894 3 23.4206 10.8895 1.5047 3.36765 5.9062
62 1 21.879 9.2636 0.149953 2.58029 6.23375
5895 5 26.4395 10.7925 1.54726 1.97595 13.278
64 2 27.9983 9.04692 0.135224 8.50785 14.2791
5896 4 29.4728 10.9678 1.54804 -10.1053 4.29043
65 2 31.0086 9.56831 0.190832 7.44534 11.567
5897 3 32.5961 10.9535 1.59853 0.977474 3.17939
66 1 34.1091 9.58527 0.107591 -0.507867 11.6896
5898 3 35.7042 10.9579 1.62585 0.451465 10.8478
67 1 37.289 9.39791 0.0367543 3.04452 12.0102
5899 3 38.933 10.8715 1.58002 1.55182 12.5487
68 1 40.865 9.41184 0.0336288 6.96965 13.7457
5900 3 42.1033 10.8518 1.49273 0.266201 10.8903
70 2 46.9301 9.3132 0.0917497 11.1005 4.05211
5901 5 45.2646 10.8165 1.67496 -14.5946 16.4828
5902 3 48.3528 10.9078 1.51941 -2.70732 15.2243
395 2 49.9217 9.46776 2.85949 12.6206 8.31828
71 1 49.9638 9.43376 0.0380581 6.56168 10.3598
396 1 52.9352 9.45446 2.88726 0.304849 8.29971
5903 3 51.5334 10.9583 1.47817 0.671476 12.0416
5904 3 54.6456 10.9101 1.41685 -2.62784 7.26396
5905 4 1.70431 13.8738 1.32172 -12.0936 12.5799
397 1 0.0270257 12.2768 2.85493 0.35931 4.08747
5906 4 4.65022 14.1637 1.51516 -8.76741 11.5156
5907 3 7.66017 13.9299 1.5629 3.83653 5.40944
76 1 9.47228 12.5382 0.0179928 3.04798 5.23947
5908 3 11.023 14.0156 1.54265 -0.566548 8.69159
5909 3 13.9319 14.1079 1.55409 -5.43996 5.00261
402 2 15.3793 12.6033 2.94555 9.61599 12.274
78 1 15.3253 12.5292 0.0639585 -0.090485 4.68627
5910 5 17.1483 13.8746 1.54908 -0.604994 4.8746
5911 5 20.2883 13.923 1.52004 -1.7563 9.2237
80 1 21.6896 12.0558 0.193344 1.20553 15.2204
5912 3 23.3202 13.9428 1.64514 -4.00634 10.4596
5913 5 26.4889 14.019 1.56918 -6.13431 9.99496
81 2 24.7624 12.4452 0.161147 14.2672 5.99418
5914 4 29.7462 13.9493 1.58689 -11.3975 10.0799
5915 5 32.8539 13.9812 1.56158 -3.17997 6.66871
84 1 34.2517 12.2727 0.10052 0.660123 12.2269
5916 4 35.9388 14.0558 1.55302 -8.75498 9.37897
85 1 37.4188 12.3095 0.236891 0.859772 8.84382
409 2 37.4428 12.252 2.93568 10.6188 9.6138
5917 4 39.0592 14.0801 1.57787 -6.16295 9.28559
410 1 40.6566 12.29 2.74075 0.0289592 4.05733
5918 5 42.0586 14.1526 1.49294 -9.69754 15.5584
87 2 43.5755 12.3969 0.211744 9.75517 9.29689
5919 4 45.1701 14.1255 1.58253 -9.7099 18.3554
88 2 46.9022 12.3973 0.168509 9.21707 6.66571
5920 5 48.4039 14.0349 1.58198 -9.66859 9.76697
413 2 49.9443 12.4816 2.88161 9.83684 13.3067
89 2 50.0045 12.3583 0.0632839 15.8992 8.17118
5921 5 51.5612 14.0593 1.59846 -9.89748 17.7476
414 2 53.1994 12.5459 2.9398 9.35309 10.2639
5922 5 54.6747 13.9215 1.47016 -15.6516 10.5144
5923 4 1.52219 17.1662 1.36696 -2.28325 13.4995
415 2 0.0529144 15.4711 2.94273 7.94296 8.12149
5924 5 4.55636 17.3613 1.50315 -8.01267 11.8727
5925 4 7.66004 17.0534 1.56422 -9.89442 15.0259
5926 3 10.9419 17.0238 1.51271 -4.21505 15.7881
94 1 9.27525 15.3427 0.12195 4.85135 8.35955
418 1 9.41642 15.5808 2.63993 -0.761607 7.97225
5927 3 13.9858 17.0502 1.55333 -3.38751 7.96272
95 2 12.4723 15.5718 0.112534 15.4916 10.2451
420 1 15.6023 15.5024 2.87821 -0.199011 12.1138
5928 4 17.2572 17.011 1.5702 -6.92493 12.0752
96 1 15.4442 15.4696 0.0374973 6.44421 6.62802
5929 5 20.3438 17.1394 1.56891 -5.12269 7.79673
5930 4 23.5246 17.0869 1.61735 -12.4084 9.17919
98 1 21.8572 15.598 0.0583259 -1.39988 13.5645
99 2 24.6622 15.3031 0.21527 1.08714 9.4945
5931 4 26.5021 17.2553 1.7555 -0.0423975 13.0839
100 2 28.2364 15.6693 0.0353551 12.3954 6.13893
5932 5 29.7499 17.2 1.61083 -0.310449 8.27668
101 2 31.1395 15.3998 0.070286 9.69804 6.88118
5933 4 32.8523 17.1324 1.53021 -10.3295 6.81074
5934 5 35.9174 17.1955 1.62913 -3.9922 11.8312
5935 4 39.0346 17.2235 1.64242 -5.6626 12.036
5936 4 42.1563 17.3448 1.60564 -9.79276 8.28844
105 1 43.5804 15.8699 0.0532592 4.46653 12.834
5937 3 45.257 17.3542 1.6407 6.05293 8.18696
5938 4 48.3262 17.0366 1.56641 -10.3286 4.33294
5939 5 51.4838 17.179 1.29481 -9.03656 4.11971
5940 5 54.6191 17.0649 1.52836 -10.2383 10.3566
5941 4 1.44131 20.4757 1.50623 -11.0745 12.8975
5942 4 4.66762 20.4846 1.57729 -10.9718 8.96314
5943 5 7.87069 20.3108 1.45067 -9.1543 12.0792
5944 5 10.8869 20.1971 1.58512 -6.79541 20.0558
112 1 9.43636 18.47 0.182872 -1.98732 6.10003
5945 4 13.9061 20.169 1.4835 -10.098 7.13387
113 1 12.485 18.4074 0.0433968 0.557184 8.68491
5946 4 17.2315 20.0428 1.54244 -9.82136 5.66693
114 2 15.4136 18.6602 0.0917722 12.065 9.88565
5947 4 20.3037 20.2073 1.45624 -11.2377 5.5246
5948 5 23.4466 20.2968 1.54977 -5.5073 10.1623
117 1 25.2347 18.9721 0.105638 1.62336 6.68362
5949 3 26.6414 20.4742 1.7191 1.70251 8.698
118 1 28.0733 18.8867 0.0431547 8.03368 6.53448
442 2 28.1399 18.8391 2.89085 8.51565 11.5474
5950 3 29.6412 20.3567 1.54987 -1.47066 7.54316
119 1 31.3114 18.7659 0.0161952 -2.32066 12.6537
5951 4 32.7529 20.2022 1.41275 -14.6847 14.3799
5952 5 35.8227 20.3122 1.67862 -5.16951 8.74998
121 1 37.5111 18.6185 0.0496232 0.5311 12.9623
5953 5 38.9776 20.3704 1.68918 -2.54492 7.98388
5954 4 42.1351 20.3672 1.77907 -5.17282 14.8519
5955 3 45.0315 20.4158 1.64005 7.62379 9.3648
5956 5 48.1909 20.226 1.40658 8.81548 6.86499
5957 5 51.3978 20.4393 1.54871 -7.92738 12.4167
5958 4 54.4726 20.3386 1.60162 -6.39832 14.4581
109 2 56.0231 18.9097 0.0165662 8.33326 7.87019
5959 3 1.48135 23.5366 1.59608 -2.6975 23.8983
5960 3 4.68892 23.5514 1.56932 -1.7633 14.9806
5961 3 7.82812 23.4302 1.57399 -5.766 16.6187
129 1 6.38559 22.0038 0.175414 2.26384 2.08444
5962 3 10.886 23.4809 1.48975 0.00440562 7.35945
130 2 9.19243 22.034 0.274098 8.48093 14.2153
5963 5 13.9753 23.3916 1.42363 -6.9172 14.6411
131 2 12.1027 21.8675 0.142821 7.08155 9.19718
5964 3 17.1166 23.3202 1.59536 -1.55399 11.9468
5965 3 20.2131 23.3642 1.78136 5.75797 11.5198
133 2 18.6507 21.8437 0.132094 14.4591 11.0124
5966 3 23.2267 23.1592 1.57762 -5.19055 6.48503
134 1 21.7209 21.9684 0.00922251 2.10898 12.1644
5967 5 26.3567 23.4617 1.74905 -7.72266 5.76683
135 2 25.098 21.8662 0.182849 6.67747 4.05516
136 2 28.2654 21.8345 0.266881 9.97917 13.0341
5968 4 29.6704 23.425 1.62756 -17.7971 6.68162
5969 5 32.7855 23.4933 1.5491 -13.6199 16.8928
138 1 34.2644 22.2014 0.0323234 -0.150507 9.50069
5970 5 35.7774 23.5362 1.84564 -4.44892 7.26963
139 1 37.4761 22.0941 0.209414 2.99784 9.43239
5971 3 38.9918 23.5158 1.54472 3.24081 10.3379
5972 5 41.9742 23.409 1.68528 -7.3218 13.0392
141 2 43.8176 21.7697 0.0361035 10.2044 10.1755
5973 3 44.9238 23.5138 1.64213 6.12166 10.9058
142 2 46.5629 22.0507 0.280395 6.83385 12.915
5974 3 48.1052 23.3798 1.53117 -0.368222 10.5242
143 2 49.8307 21.7552 0.0896992 9.88523 7.14523
5975 4 51.1549 23.5829 1.54273 -6.04017 11.3115
144 2 52.8575 22.0292 0.259143 7.65247 11.8981
5976 3 54.4526 23.5852 1.53438 0.056052 16.2622
451 2 56.024 22.3271 2.78411 2.28625 12.3173
127 2 55.7573 21.9446 0.119298 9.40409 11.4575
5977 4 1.53323 26.5149 1.33751 -9.09958 7.77024
469 2 0.119 24.9951 2.91445 11.5976 8.25743
5978 5 4.69488 26.5076 1.41055 -10.9493 11.7554
146 2 3.31317 24.9261 0.0336818 9.06435 11.6197
147 1 6.22436 24.6831 0.0572195 0.464262 9.54466
5979 5 7.74625 26.3937 1.449 -15.6885 9.06437
5980 5 10.8997 26.4924 1.59372 -8.78518 12.0907
148 2 9.47143 24.862 0.0652363 10.0914 7.20867
5981 5 14.208 26.5756 1.60294 -2.78406 8.4132
149 2 12.5704 24.7462 0.100729 3.205 20.1033
5982 5 17.2477 26.4256 1.43928 -7.12516 10.2393
474 2 15.6136 24.8852 2.86727 7.33618 7.41379
151 1 18.846 24.5971 0.127483 1.36497 11.4777
152 1 21.8617 24.8113 0.247843 6.26104 5.97409
5984 5 23.2588 26.5722 1.65807 -8.03634 16.8174
153 1 24.6524 24.7919 0.299635 0.479677 11.5557
154 1 27.9354 25.1238 0.261535 -2.32875 6.132
5988 5 35.5546 26.596 1.69051 -7.96577 18.7509
157 1 37.466 24.8937 0.106897 6.40604 10.6125
158 1 40.3614 24.7651 0.114338 3.72605 12.358
5990 5 41.9438 26.5672 1.74305 -6.31293 6.20152
159 2 43.4044 24.7028 0.175053 7.31228 9.8697
160 1 46.6796 24.7017 0.172344 2.40802 8.75128
5992 4 48.3096 26.4117 1.66382 1.51347 10.7791
162 2 52.8655 24.943 0.124361 7.55 15.7872
5993 3 51.513 26.5815 1.53929 -2.6383 10.4293
5994 3 54.475 26.4915 1.66381 0.229515 7.47713
488 2 2.9824 28.0419 2.95376 14.2941 4.60666
166 1 9.54806 28.1619 0.107817 3.13261 4.01465
167 1 12.653 28.2543 0.104263 1.52636 7.12383
492 2 15.7332 28.2531 2.59964 1.31465 13.7505
5983 3 20.3287 26.6406 1.33721 -1.22639 20.9417
493 2 18.7632 28.392 2.5647 7.77293 9.24167
170 2 21.7963 28.114 0.0778 13.2553 3.00054
5985 4 26.2952 26.6194 1.65026 -12.701 11.5418
5986 5 29.388 26.6234 1.7004 -10.7943 17.4552
172 1 27.9779 28.2819 0.0714877 2.22783 12.8901
173 2 30.8377 28.1437 0.293992 2.47796 10.4626
5987 5 32.6116 26.62 1.52811 -10.4734 8.07007
175 1 37.0257 28.1456 0.0923863 3.6502 9.2172
5989 5 38.7556 26.6596 1.67535 -3.05779 6.59071
176 1 40.5624 28.3183 0.176626 1.80122 8.92821
177 2 43.5963 28.2063 0.145101 9.16786 8.16486
5991 4 45.0081 26.646 1.6531 -4.96242 8.23089
178 1 46.6945 28.2528 0.411355 5.19634 8.80391
179 2 49.9013 28.208 0.169037 14.9966 7.22242
180 2 52.796 28.0415 0.164014 13.8568 5.81979
6012 5 54.6344 29.5583 1.54064 -12.5751 11.2749
5995 3 1.54157 29.6459 1.67179 1.19353 6.10725
181 1 0.0911261 31.2166 0.11234 3.53814 5.17535
505 2 0.0349412 30.9206 2.95006 7.83173 3.29981
182 1 3.00124 31.2896 0.218366 0.317851 10.9584
5996 4 4.77966 29.5686 1.4472 -9.48326 5.03112
5997 4 7.81891 29.6556 1.60178 -8.53151 8.13751
5998 5 11.1114 29.6846 1.74929 -8.81538 7.69005
184 1 9.49792 31.1545 0.0983621 6.55055 8.74776
5999 3 14.1555 29.5898 1.63169 -6.51008 13.9807
185 1 12.6158 30.9047 0.0686866 -1.69364 8.94922
510 1 15.6592 31.1891 2.7765 4.77499 11.8711
6000 3 17.2229 29.6402 1.31073 -5.46032 12.4331
186 2 15.6386 31.2092 0.127109 15.1369 10.465
6001 3 20.3354 29.7531 1.43573 -3.0212 8.17252
511 1 18.6606 31.2634 2.95299 2.27649 4.13197
6002 5 23.4051 29.7966 1.41644 -12.7312 6.95691
6003 3 26.4144 29.6922 1.62116 0.816234 7.26732
6004 3 29.4519 29.751 1.80395 -2.99836 18.2902
190 1 28.0078 31.2402 0.25828 7.2989 13.0375
191 1 31.2138 31.5495 0.224594 4.66655 11.7251
515 1 30.8431 31.5329 2.82421 0.518029 8.75413
6005 4 32.5497 29.7778 1.78879 -4.07087 6.68566
516 1 34.1507 31.4767 2.76788 -2.512 9.93116
192 2 34.2482 31.4248 0.0920238 14.9236 11.1122
6006 3 35.7168 29.7564 1.61131 -0.571008 15.1461
517 2 37.1027 31.3396 2.89613 8.53109 7.34274
193 2 37.3666 31.1431 0.158717 8.56732 13.1204
6007 4 38.8094 29.6863 1.77766 -13.8791 13.9103
194 2 40.6664 31.0491 0.16891 11.4143 5.13209
6008 3 42.073 29.7048 1.62616 -3.12115 10.3972
195 1 43.7347 31.2575 0.250864 3.19922 9.3124
6009 3 45.0692 29.7404 1.60644 1.84294 9.87967
196 2 46.6923 31.102 0.443285 3.32641 5.33842
197 1 50.1766 31.1886 0.333023 -1.73992 8.73857
6010 3 48.3852 29.6793 1.80082 5.43661 14.9504
198 1 52.8519 31.145 0.234301 5.19201 8.2057
6011 3 51.5211 29.6442 1.71051 0.972295 18.7668
6013 5 1.54202 32.7256 1.70473 -13.1117 12.201
199 2 0.128129 34.2876 0.117934 11.8604 5.37379
6014 3 4.67542 32.6422 1.53717 4.59776 9.2349
200 2 3.33146 34.0718 0.0692473 12.1918 8.57488
6015 5 7.93085 32.9656 1.43862 -3.03678 11.5396
6016 3 11.059 32.697 1.62304 -2.72571 6.72855
202 1 9.71312 34.4178 0.265905 -1.01051 7.24742
6017 5 14.0019 32.7171 1.36358 -10.3552 9.69603
6018 3 17.3045 32.6827 1.35035 -3.63766 8.34682
528 1 15.7945 33.8328 2.80725 -1.76833 8.10212
6019 5 20.3764 32.7922 1.48303 -12.4885 14.1271
529 2 18.7174 34.2936 2.61106 4.04048 8.89623
6020 4 23.5428 32.9279 1.4503 -6.85185 10.0108
530 2 21.9039 34.5431 2.94146 9.85232 5.37865
6021 5 26.5332 32.8068 1.65599 -9.29359 18.7984
6022 3 29.5103 33.0815 1.46007 0.912752 11.5126
208 2 28.1654 34.5089 0.010533 16.5051 11.2958
6023 3 32.746 33.0447 1.5903 1.00487 17.3399
6024 3 35.8237 32.8806 1.49124 2.84546 6.80634
6025 4 39.0115 32.8543 1.57912 -7.40338 9.9501
6026 3 42.0322 32.7475 1.7452 -2.43499 3.73619
213 2 43.7353 34.4982 0.0787559 8.0397 7.37979
6027 5 45.2031 32.7986 1.71782 -13.2818 8.127
6028 4 48.3218 32.8217 1.36596 -11.6896 12.8295
6029 3 51.2436 32.7036 1.82273 2.58305 18.933
216 1 52.9996 34.2538 0.231591 3.26661 12.863
6030 3 54.5642 32.6612 1.61203 0.825362 13.5036
6031 5 1.70705 35.8879 1.65364 -7.34666 12.4433
217 2 0.181675 37.6309 0.0929273 9.35783 6.24707
218 1 3.42316 37.694 0.213638 -0.09295 9.30092
6032 5 4.75424 35.8362 1.5987 -11.1066 16.9379
219 1 6.08383 37.712 0.169254 -1.25199 4.19878
6033 4 7.87707 35.9948 1.57359 -16.648 9.53209
6034 3 11.0655 35.8506 1.5607 2.91902 15.6621
220 2 9.55729 37.3989 0.0715761 10.1103 9.36698
221 2 12.4583 37.2865 0.128212 12.0816 5.20115
6035 4 14.1545 35.7352 1.57632 -10.7472 6.20847
6036 5 17.0816 35.8653 1.5141 -6.70865 21.9927
6037 5 20.1865 36.0161 1.4403 -6.61764 9.50097
548 1 21.7721 37.5746 2.77935 0.666762 9.1107
6038 5 23.4057 36.0986 1.31259 -4.38332 8.96197
6039 3 26.4794 36.0755 1.52428 5.54978 7.81241
6040 3 29.5599 35.8595 1.36531 -2.00532 8.11557
6041 4 32.6499 35.9553 1.63607 -8.54542 16.5443
228 2 34.5213 37.4937 0.145551 7.95657 6.42733
6042 5 35.9654 35.8852 1.61997 -5.57091 14.154
229 2 37.4696 37.329 0.35065 4.58903 10.6052
6043 3 39.0046 35.9715 1.4726 -6.64443 16.4079
230 2 40.5515 37.4313 0.0411477 12.5866 5.18353
6044 5 42.0787 35.7922 1.50746 -12.4839 11.4428
231 2 43.5285 37.1588 0.102124 4.94305 13.0287
6045 3 45.0939 35.8644 1.58347 0.188094 2.88707
6046 4 48.2631 35.9049 1.50275 -19.6615 8.25177
6047 3 51.3832 35.9072 1.52394 5.25159 7.59001
558 2 52.7918 37.4923 2.92857 8.16089 5.58628
234 2 53.1363 37.5047 0.000788387 8.8444 6.44744
6048 4 54.5838 35.8002 1.43345 -6.957 12.0391
6049 3 1.64588 39.054 1.51187 5.29992 12.3686
235 1 0.354918 40.8296 0.19928 2.24428 9.41681
6050 3 4.84858 39.1245 1.63862 -0.0232435 21.9411
236 1 3.29257 40.7451 0.0697866 8.07313 9.84113
560 1 3.16302 40.5288 2.88695 2.24083 5.76685
6051 3 7.88286 38.8683 1.573 -2.99737 13.4216
562 1 9.47796 40.2039 2.93412 -0.656433 7.85302
6052 3 10.9612 38.8115 1.53061 -0.0144568 9.90865
6053 5 14.035 38.9845 1.5559 -5.34391 7.4569
6054 3 17.0511 39.2343 1.49706 0.392905 8.64874
6055 5 20.1365 39.1138 1.35202 -8.19973 16.626
241 1 18.5784 40.7527 0.0905688 0.197792 9.05941
6056 3 23.6036 38.9169 1.53052 -0.934763 16.2431
566 1 22.0146 40.3087 2.86155 1.19452 7.89486
6057 3 26.4679 39.0229 1.30756 2.37322 12.1082
6058 4 29.7485 38.9511 1.41658 -3.95564 16.9729
570 2 34.4286 40.5599 2.70388 8.15012 11.0345
6059 5 32.7781 39.0006 1.61344 -8.41217 10.2707
246 1 34.5834 40.7254 0.0540783 0.954178 17.0914
571 2 37.5497 40.6138 2.95488 9.79179 10.3431
6060 3 35.9691 38.9023 1.44787 2.54396 6.94023
247 1 37.4944 40.5862 0.00951302 3.46897 8.27046
6061 5 39.0781 38.9871 1.58975 -9.77511 9.66152
572 1 40.608 40.764 2.89909 3.3253 5.01646
6062 5 42.1604 38.9617 1.65978 -4.29803 12.4088
249 1 43.6785 40.8092 0.113744 1.36064 8.72446
6063 4 45.1245 38.9556 1.49576 -3.89591 14.968
574 2 46.857 40.6485 2.94193 6.47923 10.4711
6064 4 48.1534 39.0242 1.38683 -10.1753 7.30478
6065 5 51.3631 38.9155 1.32233 1.00767 9.83834
6066 4 54.6911 39.011 1.57291 -1.40231 11.5289
6067 5 1.73928 42.3951 1.67612 -6.89035 7.26676
254 1 3.56651 43.6728 0.0226878 2.33695 10.1407
6068 3 4.80485 42.2454 1.5827 1.10833 15.7162
6069 4 7.72313 41.9489 1.64565 -7.70324 15.3543
255 1 6.29674 43.8516 0.197652 2.63708 6.97024
256 2 9.02252 44.0293 0.207463 1.77523 7.81143
6070 4 10.8373 42.0076 1.32019 -7.98244 19.2278
6071 4 13.9713 42.1691 1.42152 -12.0942 7.2306
6072 5 17.1152 42.1991 1.70285 -4.39344 14.2691
6073 4 20.2817 42.1832 1.69038 -11.9698 6.74448
6074 5 23.4541 41.9865 1.6298 -9.75455 8.31756
6075 5 26.5409 42.1203 1.72953 -6.34719 14.1664
6076 4 29.5155 42.0818 1.51483 -11.6693 8.45487
262 1 27.8013 43.8756 0.130552 -4.04749 10.8421
6077 5 32.6684 42.0604 1.3332 -6.09717 12.756
588 1 34.4856 43.5851 2.92883 3.75518 8.87513
6078 3 35.9487 42.0325 1.37654 -1.72711 13.0465
265 2 37.6171 43.3962 0.0663788 6.60006 8.63987
589 2 37.4574 43.3104 2.89911 8.78747 6.4436
6079 3 39.0069 42.1057 1.36176 -5.74612 12.7255
6080 5 42.1249 42.2886 1.51136 -14.185 6.94857
6081 3 45.1685 42.1943 1.55575 1.79444 8.8393
268 1 46.6296 43.5211 0.0777449 2.45318 8.145
6082 3 48.3167 42.0193 1.70527 0.81546 12.1195
6083 4 51.4859 42.1538 1.40121 -4.49755 11.3623
6084 4 54.6332 42.2522 1.49418 -5.35903 7.40323
6085 4 1.54153 45.5086 1.50732 -12.1741 15.3844
6086 3 4.64686 45.4751 1.47684 3.31985 13.3152
6087 4 7.62923 45.4671 1.92296 0.90165 13.3022
597 2 5.94766 47.2198 2.74823 -7.25689 12.5391
6088 5 11.0325 45.04 1.58065 -7.48302 9.21343
274 1 9.30257 46.769 0.231889 1.04772 8.49994
6089 5 14.1621 45.1848 1.3708 -10.359 12.3341
599 1 12.6439 46.7889 2.81268 -1.28154 11.8608
6090 4 17.1522 45.2019 1.57047 -5.65368 3.81407
600 2 15.445 46.7815 2.88235 6.80716 6.67799
6091 5 20.3173 45.2654 1.40235 -3.13538 12.566
277 2 18.7835 46.8989 0.0440351 8.67569 4.72996
6092 4 23.4632 45.0543 1.61295 -13.3499 8.31281
278 2 21.852 46.9559 0.328518 4.35215 6.86583
6093 3 26.4021 45.1453 1.57549 -7.10132 16.5328
279 1 24.834 46.604 0.0798748 -2.23964 6.7258
604 2 28.1258 46.5221 2.85808 9.77923 9.38389
6094 5 29.7343 45.2446 1.44129 -16.5355 21.5379
6095 5 32.8451 45.1025 1.44665 -4.59646 10.816
6096 5 36.0062 45.1571 1.29835 -4.79259 19.6446
6097 4 38.9298 45.1439 1.53125 -6.84823 14.8217
6098 5 42.208 45.2729 1.4942 -3.48121 8.69187
609 2 43.7635 46.8074 2.88565 9.81862 7.26764
6099 5 45.3262 45.3819 1.47149 -14.8719 19.652
610 2 46.7191 47.0843 2.72515 7.04506 10.0913
6100 4 48.4024 45.1912 1.47661 1.24844 10.997
611 2 49.9191 47.1991 2.88576 9.11683 10.9118
6101 4 51.5419 45.5649 1.19677 -4.93434 12.5834
612 2 52.8098 47.1324 2.92442 4.73574 7.8705
6102 4 54.548 45.3034 1.53287 -5.5799 4.93769
6103 5 1.62798 48.4559 1.40379 -3.67878 11.9768
6104 3 4.62981 48.556 1.45703 -3.29985 11.6824
6105 4 7.69345 48.5167 1.46275 -16.0941 19.2006
615 1 5.91493 50.1539 2.95221 -0.583481 6.96083
6106 4 10.9128 48.331 1.6011 -4.68621 9.67544
6107 3 14.1305 48.3615 1.45555 -1.23336 12.3299
6108 5 17.1563 48.3719 1.57738 -8.65665 5.7295
618 2 15.5218 49.8427 2.85788 7.39907 10.4702
6109 3 20.3516 48.3092 1.46271 -5.67821 12.3889
296 1 21.9704 49.7532 0.305477 0.232523 6.36666
6110 4 23.4511 48.268 1.81236 -9.19354 12.0075
297 2 25.054 49.937 0.0976157 12.8305 4.6179
6111 5 26.709 48.2665 1.57986 -7.10977 12.4285
6112 5 29.7514 48.1849 1.47798 -10.4184 12.0607
623 2 31.1005 49.9567 2.80481 10.5163 7.55091
6113 4 32.9139 48.3168 1.53498 -5.04893 14.9042
624 2 34.2536 50.0327 2.82084 4.68751 9.19717
300 1 34.4795 50.2092 0.172702 -2.60507 14.3975
6114 4 36.0345 48.4486 1.59402 -7.46257 13.4563
625 1 37.5699 50.0828 2.78396 -5.63585 5.7528
6115 3 38.8358 48.3837 1.37542 1.07568 16.2841
626 1 40.2313 49.5508 2.82262 -1.60031 10.1691
6116 4 42.1195 48.467 1.34207 -17.3537 10.9007
627 2 43.8034 49.7429 2.78936 4.57952 11.3935
303 1 43.7651 50.0385 0.054318 3.00143 9.90849
6117 3 45.3381 48.4213 1.38223 -1.57239 11.8601
628 2 46.8204 50.097 2.90508 11.5699 11.2673
6118 3 48.3561 48.5445 1.33724 2.60114 12.9007
629 2 49.8877 49.9292 2.82517 12.408 9.50758
6119 3 51.4787 48.5736 1.34074 -2.0813 10.4593
6120 4 54.5147 48.4258 1.45816 -5.25429 9.21748
6121 4 1.39125 51.7203 1.4734 0.45889 10.8647
6122 3 4.52707 51.3605 1.37373 3.3443 10.573
309 1 5.91142 52.9515 0.0399021 3.77326 10.1846
633 1 6.10589 52.6486 2.71959 -0.707517 9.74865
6123 3 7.75178 51.5104 1.37114 1.90282 16.9466
6124 5 10.8739 51.449 1.66716 0.939983 12.9231
6125 4 14.1583 51.5104 1.4447 -1.20686 12.0193
311 2 12.6035 53.0516 0.024839 12.5597 6.00423
6126 3 17.3294 51.3197 1.37399 -1.72841 12.495
6127 4 20.2735 51.4237 1.66982 -12.4972 10.3466
6128 3 23.5465 51.3409 1.60636 -3.31914 19.6421
314 1 22.0508 52.7347 0.359201 -2.16668 5.84556
315 1 25.0894 52.9234 0.29033 3.14445 11.3064
6129 3 26.6377 51.4382 1.66156 0.40824 9.78532
316 2 28.0452 52.8474 0.182756 11.1014 3.5418
6130 3 29.6279 51.5395 1.5196 5.96252 3.66109
6131 5 32.7676 51.6873 1.35811 -11.5072 7.93699
6132 3 35.7855 51.5456 1.55882 -7.24724 17.9613
320 1 40.7581 53.1474 0.204156 -0.788109 10.2369
6133 4 38.978 51.5953 1.27307 -8.41032 14.5794
6134 5 42.0932 51.4914 1.66079 -9.75384 11.3648
321 2 43.5065 52.9423 0.118424 8.03592 6.59968
6135 5 45.1212 51.6107 1.55701 -9.78176 3.83626
6136 5 48.4281 51.6844 1.27804 -0.671979 12.819
6137 5 51.44 51.5773 1.66425 -9.16556 5.95579
6138 5 54.5603 51.5293 1.70494 -1.38846 8.84272
6139 3 1.35151 54.7244 1.73839 1.38482 20.9978
6140 4 4.52459 54.6524 1.60797 -2.62975 10.1648
6141 4 7.72124 54.4563 1.79166 -1.54633 4.50077
6142 4 10.8375 54.4595 1.59148 -7.12789 7.35448
5 2 12.502 56.0882 0.228696 14.4455 8.31125
6143 3 13.963 54.6382 1.60092 1.69922 6.53768
6144 4 17.1219 54.3769 1.44413 -7.03895 7.18236
6145 5 20.3793 54.6008 1.56098 -6.43806 11.4685
6146 4 23.5529 54.4156 1.67834 -10.2218 13.41
9 2 25.0918 55.9775 0.125876 8.65336 4.02862
6147 5 26.7126 54.5706 1.58485 -8.10237 14.6445
6148 5 29.9301 54.548 1.50273 -10.3313 18.6501
6149 5 32.7942 54.6103 1.46117 -13.8222 25.0814
6150 4 35.8707 54.4109 1.46826 -11.2774 18.7743
337 1 37.4007 55.8852 2.83993 -4.41819 7.08152
6151 3 39.0212 54.6639 1.63543 -1.67819 13.5964
6152 3 42.1757 54.778 1.52589 -1.23805 5.93078
6153 5 45.2239 54.7037 1.47185 -0.813995 9.72717
6154 4 48.3483 54.7418 1.56858 -7.90239 14.9976
6155 4 51.3794 54.6982 1.53073 -5.99954 13.8592
307 1 55.7655 53.4592 0.259064 -5.19751 8.51136
1 2 56.03 56.0145 0.267932 7.9611 6.9496
6156 3 54.3351 54.5622 1.61139 -2.01801 23.158
18 1 53.2504 56.0976 0.0757614 1.84739 4.48869
6157 4 1.53556 1.52507 4.77086 -9.69053 19.5631
6158 5 4.80336 1.52237 4.71688 -11.3229 15.3805
327 2 6.44714 0.292777 3.27958 3.41297 9.97841
6159 3 7.68483 1.69521 4.63365 -2.25716 11.7437
328 2 9.19002 0.218653 3.32826 7.71187 7.872
6160 5 11.0278 1.37038 4.64115 -6.29987 10.8853
6161 4 14.1504 1.49255 4.77347 -14.9196 9.22641
347 2 12.508 2.93779 3.05037 8.63876 6.46751
6162 4 17.1982 1.26631 4.97661 -9.5861 10.5732
348 2 15.8698 2.75435 3.18883 6.35147 4.67536
6163 4 20.3374 1.38439 4.81437 -10.1687 8.82886
349 2 18.6138 2.7808 3.18386 6.03622 8.59098
6164 5 23.5649 1.47611 4.88525 -5.00426 9.77293
332 2 21.944 0.265995 3.07375 10.2732 6.98292
333 2 24.8693 0.0221874 3.12212 8.95404 8.50392
6165 4 26.703 1.33282 4.57313 -6.40865 7.01005
6166 5 29.7965 1.46086 4.71124 -11.9944 12.0503
6167 4 32.8793 1.49612 4.85618 -14.2534 9.19173
354 1 34.5512 2.9535 3.26275 -1.16834 7.71382
6168 4 35.9572 1.41485 4.70317 -13.0523 7.53661
6169 4 39.0843 1.31667 5.01084 -4.88738 11.0637
356 1 40.4877 2.86109 3.19333 -2.52813 10.4016
6170 5 42.2185 1.46058 4.67618 -7.70524 6.8707
6171 4 45.2751 1.59879 4.67069 -17.4918 15.8337
6172 5 48.2861 1.75272 4.74689 -9.28999 20.5893
341 1 49.8883 0.00038329 3.45826 1.71664 4.99397
6173 4 51.3127 1.55909 5.03073 -1.92897 13.885
6174 5 54.511 1.55909 4.81653 -7.19846 15.2703
6175 5 1.56718 4.49169 4.75582 -12.588 12.6197
6176 5 4.81987 4.80402 4.76716 -21.9297 14.0473
344 2 3.45249 3.31515 3.32997 4.91884 8.41099
6177 3 7.92913 4.74584 4.73453 -2.10525 8.72556
345 2 6.27719 3.11341 3.1989 12.1565 9.00454
346 2 9.35385 2.98899 3.21247 16.2452 10.3407
6178 5 10.9546 4.43608 4.72849 -3.55786 8.23882
6179 4 14.0382 4.72543 4.65455 -3.86349 7.11719
6180 5 17.1717 4.4141 4.68553 -0.673884 11.0047
6181 4 20.344 4.41202 4.57574 -5.12268 10.1776
6182 5 23.5509 4.50208 4.59979 -6.50465 9.04123
350 1 21.7879 2.98937 3.02984 1.67554 12.0192
6183 5 26.7697 4.56985 4.69877 -8.24817 12.0074
352 2 28.3745 2.9771 3.14082 10.1443 5.87142
353 2 31.4229 3.1187 3.15268 9.59986 6.61208
6184 5 29.8129 4.60857 4.685 -16.0588 8.42416
6185 5 32.9921 4.60851 4.70453 -20.0112 9.89607
6186 3 36.0581 4.64188 4.58287 -4.3074 12.243
355 2 37.5936 3.09343 3.36883 6.27103 9.11522
6187 4 39.1226 4.68394 4.52298 -14.0713 11.6624
6188 4 42.1586 4.6684 4.72957 -15.5737 11.7572
357 2 44.0182 3.3516 3.31581 3.593 4.41437
358 2 46.8765 3.43666 3.24527 8.20495 8.37967
6189 3 45.1986 4.8379 4.69438 -4.5391 14.7803
6190 5 48.1797 5.00947 4.66576 -7.43792 10.4386
359 2 49.8617 3.39267 3.33715 10.8177 6.13689
6191 5 51.4946 4.75545 4.78889 -0.931474 9.26481
360 1 53.0784 3.28998 2.99354 -1.15243 10.4686
343 2 56.0733 3.06413 3.01016 6.08532 9.36689
6192 4 54.5527 4.56446 4.72184 -11.8241 6.74558
6193 5 1.47365 7.68448 4.46651 -11.601 13.4459
362 2 3.20207 6.09799 3.29494 7.97329 12.2047
6194 3 4.69144 7.70947 4.56218 2.83524 15.3771
6195 3 7.88777 7.67801 4.59471 -2.57193 17.0679
363 2 6.20221 6.28491 3.04276 9.65609 15.9673
6196 5 11.078 7.62785 4.65534 -17.3493 5.86879
364 1 9.5595 5.97279 3.12053 2.49976 7.58116
6197 5 14.1221 7.96907 4.65518 -17.3765 13.6624
365 2 12.4387 6.29784 3.0698 8.15865 14.2405
366 1 15.671 6.38472 3.24221 3.98056 9.70091
6198 3 17.0215 8.0243 4.79642 -0.507816 11.4476
6199 4 20.4798 7.56036 4.60247 -6.9364 9.57558
367 1 18.5607 6.37144 3.49293 2.56367 13.0743
368 1 22.1684 6.312 3.07564 2.38997 10.3079
6200 3 23.5191 7.56694 4.7534 -3.70543 10.6257
369 2 25.1579 6.06206 3.20152 13.3287 7.96224
6201 5 26.4873 7.69474 4.88415 -9.81873 8.34067
370 2 28.1089 6.14968 3.07838 11.8244 8.01065
371 2 31.2038 6.17487 3.06062 8.08386 10.7447
6202 5 29.7543 7.71046 4.79333 -9.60979 11.1607
372 2 34.4165 6.1193 3.30008 6.92312 13.3664
6203 4 32.8536 7.71653 4.69479 -10.5328 15.6958
6204 5 35.8724 7.87932 4.48733 -10.3393 11.4844
373 1 37.4634 6.25147 3.05172 2.18645 3.14477
6205 5 39.0635 7.84238 4.75799 -7.46785 7.76816
374 2 40.6524 6.36604 3.1359 6.92856 4.02089
6206 5 42.1866 7.80454 4.71438 -6.19574 5.58793
6207 5 45.3418 7.79977 4.71202 -0.950522 8.60642
6208 3 48.322 8.04859 4.54743 -2.72203 8.80094
377 2 49.8082 6.58998 3.11126 10.0595 9.21058
6209 4 51.332 7.91183 4.73895 -10.5677 10.9338