/home/sez26/TIGP-IIP/HEA_compression/LMP_Files/100/HEA_II.lmp (written by ASE) 

4000 	 atoms 
5  atom types
0.0      62.399999999999999  xlo xhi
0.0      31.199999999999999  ylo yhi
0.0      31.199999999999999  zlo zhi


Atoms 

     1   2                       0                       0                       0
     2   1      3.1200000000000001                       0                       0
     3   1      6.2400000000000002                       0                       0
     4   1      9.3599999999999994                       0                       0
     5   2                   12.48                       0                       0
     6   2                    15.6                       0                       0
     7   1      18.719999999999999                       0                       0
     8   2                   21.84                       0                       0
     9   1      24.960000000000001                       0                       0
    10   1      28.079999999999998                       0                       0
    11   1      31.199999999999999                       0                       0
    12   1                   34.32                       0                       0
    13   1      37.439999999999998                       0                       0
    14   1      40.560000000000002                       0                       0
    15   1                   43.68                       0                       0
    16   2      46.799999999999997                       0                       0
    17   1      49.920000000000002                       0                       0
    18   2      53.039999999999999                       0                       0
    19   1      56.159999999999997                       0                       0
    20   1      59.280000000000001                       0                       0
    21   2                       0      3.1200000000000001                       0
    22   1      3.1200000000000001      3.1200000000000001                       0
    23   2      6.2400000000000002      3.1200000000000001                       0
    24   2      9.3599999999999994      3.1200000000000001                       0
    25   1                   12.48      3.1200000000000001                       0
    26   2                    15.6      3.1200000000000001                       0
    27   1      18.719999999999999      3.1200000000000001                       0
    28   1                   21.84      3.1200000000000001                       0
    29   1      24.960000000000001      3.1200000000000001                       0
    30   1      28.079999999999998      3.1200000000000001                       0
    31   2      31.199999999999999      3.1200000000000001                       0
    32   2                   34.32      3.1200000000000001                       0
    33   2      37.439999999999998      3.1200000000000001                       0
    34   2      40.560000000000002      3.1200000000000001                       0
    35   2                   43.68      3.1200000000000001                       0
    36   1      46.799999999999997      3.1200000000000001                       0
    37   1      49.920000000000002      3.1200000000000001                       0
    38   2      53.039999999999999      3.1200000000000001                       0
    39   1      56.159999999999997      3.1200000000000001                       0
    40   1      59.280000000000001      3.1200000000000001                       0
    41   1                       0      6.2400000000000002                       0
    42   2      3.1200000000000001      6.2400000000000002                       0
    43   1      6.2400000000000002      6.2400000000000002                       0
    44   1      9.3599999999999994      6.2400000000000002                       0
    45   1                   12.48      6.2400000000000002                       0
    46   1                    15.6      6.2400000000000002                       0
    47   1      18.719999999999999      6.2400000000000002                       0
    48   1                   21.84      6.2400000000000002                       0
    49   2      24.960000000000001      6.2400000000000002                       0
    50   2      28.079999999999998      6.2400000000000002                       0
    51   2      31.199999999999999      6.2400000000000002                       0
    52   2                   34.32      6.2400000000000002                       0
    53   2      37.439999999999998      6.2400000000000002                       0
    54   1      40.560000000000002      6.2400000000000002                       0
    55   2                   43.68      6.2400000000000002                       0
    56   2      46.799999999999997      6.2400000000000002                       0
    57   1      49.920000000000002      6.2400000000000002                       0
    58   1      53.039999999999999      6.2400000000000002                       0
    59   1      56.159999999999997      6.2400000000000002                       0
    60   2      59.280000000000001      6.2400000000000002                       0
    61   1                       0      9.3599999999999994                       0
    62   2      3.1200000000000001      9.3599999999999994                       0
    63   2      6.2400000000000002      9.3599999999999994                       0
    64   2      9.3599999999999994      9.3599999999999994                       0
    65   1                   12.48      9.3599999999999994                       0
    66   2                    15.6      9.3599999999999994                       0
    67   1      18.719999999999999      9.3599999999999994                       0
    68   1                   21.84      9.3599999999999994                       0
    69   2      24.960000000000001      9.3599999999999994                       0
    70   2      28.079999999999998      9.3599999999999994                       0
    71   1      31.199999999999999      9.3599999999999994                       0
    72   1                   34.32      9.3599999999999994                       0
    73   1      37.439999999999998      9.3599999999999994                       0
    74   1      40.560000000000002      9.3599999999999994                       0
    75   1                   43.68      9.3599999999999994                       0
    76   1      46.799999999999997      9.3599999999999994                       0
    77   1      49.920000000000002      9.3599999999999994                       0
    78   2      53.039999999999999      9.3599999999999994                       0
    79   2      56.159999999999997      9.3599999999999994                       0
    80   1      59.280000000000001      9.3599999999999994                       0
    81   2                       0                   12.48                       0
    82   1      3.1200000000000001                   12.48                       0
    83   2      6.2400000000000002                   12.48                       0
    84   2      9.3599999999999994                   12.48                       0
    85   1                   12.48                   12.48                       0
    86   1                    15.6                   12.48                       0
    87   1      18.719999999999999                   12.48                       0
    88   2                   21.84                   12.48                       0
    89   1      24.960000000000001                   12.48                       0
    90   1      28.079999999999998                   12.48                       0
    91   2      31.199999999999999                   12.48                       0
    92   2                   34.32                   12.48                       0
    93   1      37.439999999999998                   12.48                       0
    94   2      40.560000000000002                   12.48                       0
    95   1                   43.68                   12.48                       0
    96   1      46.799999999999997                   12.48                       0
    97   1      49.920000000000002                   12.48                       0
    98   2      53.039999999999999                   12.48                       0
    99   2      56.159999999999997                   12.48                       0
   100   1      59.280000000000001                   12.48                       0
   101   2                       0                    15.6                       0
   102   1      3.1200000000000001                    15.6                       0
   103   1      6.2400000000000002                    15.6                       0
   104   2      9.3599999999999994                    15.6                       0
   105   2                   12.48                    15.6                       0
   106   2                    15.6                    15.6                       0
   107   2      18.719999999999999                    15.6                       0
   108   1                   21.84                    15.6                       0
   109   1      24.960000000000001                    15.6                       0
   110   2      28.079999999999998                    15.6                       0
   111   2      31.199999999999999                    15.6                       0
   112   1                   34.32                    15.6                       0
   113   1      37.439999999999998                    15.6                       0
   114   2      40.560000000000002                    15.6                       0
   115   1                   43.68                    15.6                       0
   116   2      46.799999999999997                    15.6                       0
   117   2      49.920000000000002                    15.6                       0
   118   1      53.039999999999999                    15.6                       0
   119   2      56.159999999999997                    15.6                       0
   120   2      59.280000000000001                    15.6                       0
   121   1                       0      18.719999999999999                       0
   122   2      3.1200000000000001      18.719999999999999                       0
   123   2      6.2400000000000002      18.719999999999999                       0
   124   2      9.3599999999999994      18.719999999999999                       0
   125   2                   12.48      18.719999999999999                       0
   126   1                    15.6      18.719999999999999                       0
   127   1      18.719999999999999      18.719999999999999                       0
   128   1                   21.84      18.719999999999999                       0
   129   1      24.960000000000001      18.719999999999999                       0
   130   1      28.079999999999998      18.719999999999999                       0
   131   2      31.199999999999999      18.719999999999999                       0
   132   2                   34.32      18.719999999999999                       0
   133   2      37.439999999999998      18.719999999999999                       0
   134   1      40.560000000000002      18.719999999999999                       0
   135   2                   43.68      18.719999999999999                       0
   136   2      46.799999999999997      18.719999999999999                       0
   137   1      49.920000000000002      18.719999999999999                       0
   138   2      53.039999999999999      18.719999999999999                       0
   139   1      56.159999999999997      18.719999999999999                       0
   140   2      59.280000000000001      18.719999999999999                       0
   141   2                       0                   21.84                       0
   142   2      3.1200000000000001                   21.84                       0
   143   1      6.2400000000000002                   21.84                       0
   144   1      9.3599999999999994                   21.84                       0
   145   2                   12.48                   21.84                       0
   146   2                    15.6                   21.84                       0
   147   1      18.719999999999999                   21.84                       0
   148   1                   21.84                   21.84                       0
   149   2      24.960000000000001                   21.84                       0
   150   1      28.079999999999998                   21.84                       0
   151   2      31.199999999999999                   21.84                       0
   152   2                   34.32                   21.84                       0
   153   2      37.439999999999998                   21.84                       0
   154   1      40.560000000000002                   21.84                       0
   155   1                   43.68                   21.84                       0
   156   2      46.799999999999997                   21.84                       0
   157   2      49.920000000000002                   21.84                       0
   158   1      53.039999999999999                   21.84                       0
   159   2      56.159999999999997                   21.84                       0
   160   1      59.280000000000001                   21.84                       0
   161   2                       0      24.960000000000001                       0
   162   2      3.1200000000000001      24.960000000000001                       0
   163   2      6.2400000000000002      24.960000000000001                       0
   164   2      9.3599999999999994      24.960000000000001                       0
   165   1                   12.48      24.960000000000001                       0
   166   1                    15.6      24.960000000000001                       0
   167   1      18.719999999999999      24.960000000000001                       0
   168   2                   21.84      24.960000000000001                       0
   169   1      24.960000000000001      24.960000000000001                       0
   170   1      28.079999999999998      24.960000000000001                       0
   171   2      31.199999999999999      24.960000000000001                       0
   172   2                   34.32      24.960000000000001                       0
   173   2      37.439999999999998      24.960000000000001                       0
   174   1      40.560000000000002      24.960000000000001                       0
   175   1                   43.68      24.960000000000001                       0
   176   1      46.799999999999997      24.960000000000001                       0
   177   2      49.920000000000002      24.960000000000001                       0
   178   1      53.039999999999999      24.960000000000001                       0
   179   2      56.159999999999997      24.960000000000001                       0
   180   1      59.280000000000001      24.960000000000001                       0
   181   2                       0      28.079999999999998                       0
   182   2      3.1200000000000001      28.079999999999998                       0
   183   2      6.2400000000000002      28.079999999999998                       0
   184   2      9.3599999999999994      28.079999999999998                       0
   185   1                   12.48      28.079999999999998                       0
   186   1                    15.6      28.079999999999998                       0
   187   1      18.719999999999999      28.079999999999998                       0
   188   2                   21.84      28.079999999999998                       0
   189   1      24.960000000000001      28.079999999999998                       0
   190   2      28.079999999999998      28.079999999999998                       0
   191   2      31.199999999999999      28.079999999999998                       0
   192   1                   34.32      28.079999999999998                       0
   193   1      37.439999999999998      28.079999999999998                       0
   194   1      40.560000000000002      28.079999999999998                       0
   195   2                   43.68      28.079999999999998                       0
   196   1      46.799999999999997      28.079999999999998                       0
   197   1      49.920000000000002      28.079999999999998                       0
   198   1      53.039999999999999      28.079999999999998                       0
   199   1      56.159999999999997      28.079999999999998                       0
   200   2      59.280000000000001      28.079999999999998                       0
   201   1                       0                       0      3.1200000000000001
   202   1      3.1200000000000001                       0      3.1200000000000001
   203   2      6.2400000000000002                       0      3.1200000000000001
   204   2      9.3599999999999994                       0      3.1200000000000001
   205   2                   12.48                       0      3.1200000000000001
   206   2                    15.6                       0      3.1200000000000001
   207   1      18.719999999999999                       0      3.1200000000000001
   208   2                   21.84                       0      3.1200000000000001
   209   2      24.960000000000001                       0      3.1200000000000001
   210   1      28.079999999999998                       0      3.1200000000000001
   211   2      31.199999999999999                       0      3.1200000000000001
   212   2                   34.32                       0      3.1200000000000001
   213   2      37.439999999999998                       0      3.1200000000000001
   214   2      40.560000000000002                       0      3.1200000000000001
   215   2                   43.68                       0      3.1200000000000001
   216   2      46.799999999999997                       0      3.1200000000000001
   217   1      49.920000000000002                       0      3.1200000000000001
   218   1      53.039999999999999                       0      3.1200000000000001
   219   2      56.159999999999997                       0      3.1200000000000001
   220   1      59.280000000000001                       0      3.1200000000000001
   221   1                       0      3.1200000000000001      3.1200000000000001
   222   2      3.1200000000000001      3.1200000000000001      3.1200000000000001
   223   2      6.2400000000000002      3.1200000000000001      3.1200000000000001
   224   2      9.3599999999999994      3.1200000000000001      3.1200000000000001
   225   1                   12.48      3.1200000000000001      3.1200000000000001
   226   1                    15.6      3.1200000000000001      3.1200000000000001
   227   2      18.719999999999999      3.1200000000000001      3.1200000000000001
   228   1                   21.84      3.1200000000000001      3.1200000000000001
   229   1      24.960000000000001      3.1200000000000001      3.1200000000000001
   230   2      28.079999999999998      3.1200000000000001      3.1200000000000001
   231   2      31.199999999999999      3.1200000000000001      3.1200000000000001
   232   2                   34.32      3.1200000000000001      3.1200000000000001
   233   1      37.439999999999998      3.1200000000000001      3.1200000000000001
   234   2      40.560000000000002      3.1200000000000001      3.1200000000000001
   235   1                   43.68      3.1200000000000001      3.1200000000000001
   236   1      46.799999999999997      3.1200000000000001      3.1200000000000001
   237   1      49.920000000000002      3.1200000000000001      3.1200000000000001
   238   1      53.039999999999999      3.1200000000000001      3.1200000000000001
   239   1      56.159999999999997      3.1200000000000001      3.1200000000000001
   240   1      59.280000000000001      3.1200000000000001      3.1200000000000001
   241   1                       0      6.2400000000000002      3.1200000000000001
   242   2      3.1200000000000001      6.2400000000000002      3.1200000000000001
   243   2      6.2400000000000002      6.2400000000000002      3.1200000000000001
   244   1      9.3599999999999994      6.2400000000000002      3.1200000000000001
   245   1                   12.48      6.2400000000000002      3.1200000000000001
   246   1                    15.6      6.2400000000000002      3.1200000000000001
   247   1      18.719999999999999      6.2400000000000002      3.1200000000000001
   248   2                   21.84      6.2400000000000002      3.1200000000000001
   249   1      24.960000000000001      6.2400000000000002      3.1200000000000001
   250   1      28.079999999999998      6.2400000000000002      3.1200000000000001
   251   1      31.199999999999999      6.2400000000000002      3.1200000000000001
   252   1                   34.32      6.2400000000000002      3.1200000000000001
   253   1      37.439999999999998      6.2400000000000002      3.1200000000000001
   254   1      40.560000000000002      6.2400000000000002      3.1200000000000001
   255   1                   43.68      6.2400000000000002      3.1200000000000001
   256   2      46.799999999999997      6.2400000000000002      3.1200000000000001
   257   1      49.920000000000002      6.2400000000000002      3.1200000000000001
   258   1      53.039999999999999      6.2400000000000002      3.1200000000000001
   259   1      56.159999999999997      6.2400000000000002      3.1200000000000001
   260   2      59.280000000000001      6.2400000000000002      3.1200000000000001
   261   1                       0      9.3599999999999994      3.1200000000000001
   262   2      3.1200000000000001      9.3599999999999994      3.1200000000000001
   263   2      6.2400000000000002      9.3599999999999994      3.1200000000000001
   264   2      9.3599999999999994      9.3599999999999994      3.1200000000000001
   265   1                   12.48      9.3599999999999994      3.1200000000000001
   266   1                    15.6      9.3599999999999994      3.1200000000000001
   267   1      18.719999999999999      9.3599999999999994      3.1200000000000001
   268   1                   21.84      9.3599999999999994      3.1200000000000001
   269   1      24.960000000000001      9.3599999999999994      3.1200000000000001
   270   2      28.079999999999998      9.3599999999999994      3.1200000000000001
   271   2      31.199999999999999      9.3599999999999994      3.1200000000000001
   272   1                   34.32      9.3599999999999994      3.1200000000000001
   273   2      37.439999999999998      9.3599999999999994      3.1200000000000001
   274   2      40.560000000000002      9.3599999999999994      3.1200000000000001
   275   2                   43.68      9.3599999999999994      3.1200000000000001
   276   1      46.799999999999997      9.3599999999999994      3.1200000000000001
   277   1      49.920000000000002      9.3599999999999994      3.1200000000000001
   278   1      53.039999999999999      9.3599999999999994      3.1200000000000001
   279   2      56.159999999999997      9.3599999999999994      3.1200000000000001
   280   1      59.280000000000001      9.3599999999999994      3.1200000000000001
   281   2                       0                   12.48      3.1200000000000001
   282   2      3.1200000000000001                   12.48      3.1200000000000001
   283   2      6.2400000000000002                   12.48      3.1200000000000001
   284   2      9.3599999999999994                   12.48      3.1200000000000001
   285   1                   12.48                   12.48      3.1200000000000001
   286   1                    15.6                   12.48      3.1200000000000001
   287   2      18.719999999999999                   12.48      3.1200000000000001
   288   2                   21.84                   12.48      3.1200000000000001
   289   1      24.960000000000001                   12.48      3.1200000000000001
   290   1      28.079999999999998                   12.48      3.1200000000000001
   291   1      31.199999999999999                   12.48      3.1200000000000001
   292   1                   34.32                   12.48      3.1200000000000001
   293   1      37.439999999999998                   12.48      3.1200000000000001
   294   2      40.560000000000002                   12.48      3.1200000000000001
   295   2                   43.68                   12.48      3.1200000000000001
   296   2      46.799999999999997                   12.48      3.1200000000000001
   297   1      49.920000000000002                   12.48      3.1200000000000001
   298   2      53.039999999999999                   12.48      3.1200000000000001
   299   2      56.159999999999997                   12.48      3.1200000000000001
   300   1      59.280000000000001                   12.48      3.1200000000000001
   301   2                       0                    15.6      3.1200000000000001
   302   2      3.1200000000000001                    15.6      3.1200000000000001
   303   2      6.2400000000000002                    15.6      3.1200000000000001
   304   1      9.3599999999999994                    15.6      3.1200000000000001
   305   2                   12.48                    15.6      3.1200000000000001
   306   1                    15.6                    15.6      3.1200000000000001
   307   2      18.719999999999999                    15.6      3.1200000000000001
   308   1                   21.84                    15.6      3.1200000000000001
   309   1      24.960000000000001                    15.6      3.1200000000000001
   310   1      28.079999999999998                    15.6      3.1200000000000001
   311   1      31.199999999999999                    15.6      3.1200000000000001
   312   2                   34.32                    15.6      3.1200000000000001
   313   2      37.439999999999998                    15.6      3.1200000000000001
   314   2      40.560000000000002                    15.6      3.1200000000000001
   315   1                   43.68                    15.6      3.1200000000000001
   316   2      46.799999999999997                    15.6      3.1200000000000001
   317   1      49.920000000000002                    15.6      3.1200000000000001
   318   1      53.039999999999999                    15.6      3.1200000000000001
   319   2      56.159999999999997                    15.6      3.1200000000000001
   320   1      59.280000000000001                    15.6      3.1200000000000001
   321   2                       0      18.719999999999999      3.1200000000000001
   322   2      3.1200000000000001      18.719999999999999      3.1200000000000001
   323   1      6.2400000000000002      18.719999999999999      3.1200000000000001
   324   2      9.3599999999999994      18.719999999999999      3.1200000000000001
   325   1                   12.48      18.719999999999999      3.1200000000000001
   326   2                    15.6      18.719999999999999      3.1200000000000001
   327   2      18.719999999999999      18.719999999999999      3.1200000000000001
   328   1                   21.84      18.719999999999999      3.1200000000000001
   329   1      24.960000000000001      18.719999999999999      3.1200000000000001
   330   2      28.079999999999998      18.719999999999999      3.1200000000000001
   331   1      31.199999999999999      18.719999999999999      3.1200000000000001
   332   2                   34.32      18.719999999999999      3.1200000000000001
   333   2      37.439999999999998      18.719999999999999      3.1200000000000001
   334   1      40.560000000000002      18.719999999999999      3.1200000000000001
   335   2                   43.68      18.719999999999999      3.1200000000000001
   336   2      46.799999999999997      18.719999999999999      3.1200000000000001
   337   2      49.920000000000002      18.719999999999999      3.1200000000000001
   338   2      53.039999999999999      18.719999999999999      3.1200000000000001
   339   2      56.159999999999997      18.719999999999999      3.1200000000000001
   340   2      59.280000000000001      18.719999999999999      3.1200000000000001
   341   2                       0                   21.84      3.1200000000000001
   342   1      3.1200000000000001                   21.84      3.1200000000000001
   343   2      6.2400000000000002                   21.84      3.1200000000000001
   344   1      9.3599999999999994                   21.84      3.1200000000000001
   345   2                   12.48                   21.84      3.1200000000000001
   346   2                    15.6                   21.84      3.1200000000000001
   347   2      18.719999999999999                   21.84      3.1200000000000001
   348   1                   21.84                   21.84      3.1200000000000001
   349   2      24.960000000000001                   21.84      3.1200000000000001
   350   2      28.079999999999998                   21.84      3.1200000000000001
   351   2      31.199999999999999                   21.84      3.1200000000000001
   352   2                   34.32                   21.84      3.1200000000000001
   353   2      37.439999999999998                   21.84      3.1200000000000001
   354   1      40.560000000000002                   21.84      3.1200000000000001
   355   2                   43.68                   21.84      3.1200000000000001
   356   2      46.799999999999997                   21.84      3.1200000000000001
   357   2      49.920000000000002                   21.84      3.1200000000000001
   358   2      53.039999999999999                   21.84      3.1200000000000001