(written by ASE)

128 atoms
5 atom types

0.0                  12.512  xlo xhi
0.0                  12.512  ylo yhi
0.0                  12.512  zlo zhi

Atoms # atomic

     1   2                       0                       0                       0
     2   4      1.5640000000000001      1.5640000000000001      1.5640000000000001
     3   1      3.1280000000000001                       0                       0
     4   3      4.6920000000000002      1.5640000000000001      1.5640000000000001
     5   2      6.2560000000000002                       0                       0
     6   3      7.8200000000000003      1.5640000000000001      1.5640000000000001
     7   2      9.3840000000000003                       0                       0
     8   5                  10.948      1.5640000000000001      1.5640000000000001
     9   1                       0      3.1280000000000001                       0
    10   4      1.5640000000000001      4.6920000000000002      1.5640000000000001
    11   1      3.1280000000000001      3.1280000000000001                       0
    12   3      4.6920000000000002      4.6920000000000002      1.5640000000000001
    13   2      6.2560000000000002      3.1280000000000001                       0
    14   3      7.8200000000000003      4.6920000000000002      1.5640000000000001
    15   2      9.3840000000000003      3.1280000000000001                       0
    16   3                  10.948      4.6920000000000002      1.5640000000000001
    17   1                       0      6.2560000000000002                       0
    18   3      1.5640000000000001      7.8200000000000003      1.5640000000000001
    19   2      3.1280000000000001      6.2560000000000002                       0
    20   4      4.6920000000000002      7.8200000000000003      1.5640000000000001
    21   2      6.2560000000000002      6.2560000000000002                       0
    22   5      7.8200000000000003      7.8200000000000003      1.5640000000000001
    23   2      9.3840000000000003      6.2560000000000002                       0
    24   3                  10.948      7.8200000000000003      1.5640000000000001
    25   1                       0      9.3840000000000003                       0
    26   4      1.5640000000000001                  10.948      1.5640000000000001
    27   2      3.1280000000000001      9.3840000000000003                       0
    28   5      4.6920000000000002                  10.948      1.5640000000000001
    29   1      6.2560000000000002      9.3840000000000003                       0
    30   5      7.8200000000000003                  10.948      1.5640000000000001
    31   2      9.3840000000000003      9.3840000000000003                       0
    32   5                  10.948                  10.948      1.5640000000000001
    33   1                       0                       0      3.1280000000000001
    34   4      1.5640000000000001      1.5640000000000001      4.6920000000000002
    35   1      3.1280000000000001                       0      3.1280000000000001
    36   4      4.6920000000000002      1.5640000000000001      4.6920000000000002
    37   1      6.2560000000000002                       0      3.1280000000000001
    38   4      7.8200000000000003      1.5640000000000001      4.6920000000000002
    39   2      9.3840000000000003                       0      3.1280000000000001
    40   4                  10.948      1.5640000000000001      4.6920000000000002
    41   2                       0      3.1280000000000001      3.1280000000000001
    42   4      1.5640000000000001      4.6920000000000002      4.6920000000000002
    43   1      3.1280000000000001      3.1280000000000001      3.1280000000000001
    44   4      4.6920000000000002      4.6920000000000002      4.6920000000000002
    45   2      6.2560000000000002      3.1280000000000001      3.1280000000000001
    46   5      7.8200000000000003      4.6920000000000002      4.6920000000000002
    47   2      9.3840000000000003      3.1280000000000001      3.1280000000000001
    48   5                  10.948      4.6920000000000002      4.6920000000000002
    49   2                       0      6.2560000000000002      3.1280000000000001
    50   5      1.5640000000000001      7.8200000000000003      4.6920000000000002
    51   2      3.1280000000000001      6.2560000000000002      3.1280000000000001
    52   3      4.6920000000000002      7.8200000000000003      4.6920000000000002
    53   1      6.2560000000000002      6.2560000000000002      3.1280000000000001
    54   5      7.8200000000000003      7.8200000000000003      4.6920000000000002
    55   2      9.3840000000000003      6.2560000000000002      3.1280000000000001
    56   5                  10.948      7.8200000000000003      4.6920000000000002
    57   2                       0      9.3840000000000003      3.1280000000000001
    58   4      1.5640000000000001                  10.948      4.6920000000000002
    59   1      3.1280000000000001      9.3840000000000003      3.1280000000000001
    60   5      4.6920000000000002                  10.948      4.6920000000000002
    61   2      6.2560000000000002      9.3840000000000003      3.1280000000000001
    62   5      7.8200000000000003                  10.948      4.6920000000000002
    63   2      9.3840000000000003      9.3840000000000003      3.1280000000000001
    64   4                  10.948                  10.948      4.6920000000000002
    65   1                       0                       0      6.2560000000000002
    66   3      1.5640000000000001      1.5640000000000001      7.8200000000000003
    67   1      3.1280000000000001                       0      6.2560000000000002
    68   5      4.6920000000000002      1.5640000000000001      7.8200000000000003
    69   1      6.2560000000000002                       0      6.2560000000000002
    70   3      7.8200000000000003      1.5640000000000001      7.8200000000000003
    71   2      9.3840000000000003                       0      6.2560000000000002
    72   3                  10.948      1.5640000000000001      7.8200000000000003
    73   2                       0      3.1280000000000001      6.2560000000000002
    74   4      1.5640000000000001      4.6920000000000002      7.8200000000000003
    75   1      3.1280000000000001      3.1280000000000001      6.2560000000000002
    76   3      4.6920000000000002      4.6920000000000002      7.8200000000000003
    77   2      6.2560000000000002      3.1280000000000001      6.2560000000000002
    78   4      7.8200000000000003      4.6920000000000002      7.8200000000000003
    79   1      9.3840000000000003      3.1280000000000001      6.2560000000000002
    80   3                  10.948      4.6920000000000002      7.8200000000000003
    81   1                       0      6.2560000000000002      6.2560000000000002
    82   4      1.5640000000000001      7.8200000000000003      7.8200000000000003
    83   1      3.1280000000000001      6.2560000000000002      6.2560000000000002
    84   5      4.6920000000000002      7.8200000000000003      7.8200000000000003
    85   1      6.2560000000000002      6.2560000000000002      6.2560000000000002
    86   3      7.8200000000000003      7.8200000000000003      7.8200000000000003
    87   2      9.3840000000000003      6.2560000000000002      6.2560000000000002
    88   5                  10.948      7.8200000000000003      7.8200000000000003
    89   1                       0      9.3840000000000003      6.2560000000000002
    90   5      1.5640000000000001                  10.948      7.8200000000000003
    91   2      3.1280000000000001      9.3840000000000003      6.2560000000000002
    92   5      4.6920000000000002                  10.948      7.8200000000000003
    93   1      6.2560000000000002      9.3840000000000003      6.2560000000000002
    94   4      7.8200000000000003                  10.948      7.8200000000000003
    95   1      9.3840000000000003      9.3840000000000003      6.2560000000000002
    96   3                  10.948                  10.948      7.8200000000000003
    97   1                       0                       0      9.3840000000000003
    98   4      1.5640000000000001      1.5640000000000001                  10.948
    99   2      3.1280000000000001                       0      9.3840000000000003
   100   3      4.6920000000000002      1.5640000000000001                  10.948
   101   1      6.2560000000000002                       0      9.3840000000000003
   102   5      7.8200000000000003      1.5640000000000001                  10.948
   103   1      9.3840000000000003                       0      9.3840000000000003
   104   5                  10.948      1.5640000000000001                  10.948
   105   2                       0      3.1280000000000001      9.3840000000000003
   106   3      1.5640000000000001      4.6920000000000002                  10.948
   107   1      3.1280000000000001      3.1280000000000001      9.3840000000000003
   108   5      4.6920000000000002      4.6920000000000002                  10.948
   109   2      6.2560000000000002      3.1280000000000001      9.3840000000000003
   110   4      7.8200000000000003      4.6920000000000002                  10.948
   111   2      9.3840000000000003      3.1280000000000001      9.3840000000000003
   112   5                  10.948      4.6920000000000002                  10.948
   113   2                       0      6.2560000000000002      9.3840000000000003
   114   3      1.5640000000000001      7.8200000000000003                  10.948
   115   2      3.1280000000000001      6.2560000000000002      9.3840000000000003
   116   3      4.6920000000000002      7.8200000000000003                  10.948
   117   1      6.2560000000000002      6.2560000000000002      9.3840000000000003
   118   4      7.8200000000000003      7.8200000000000003                  10.948
   119   1      9.3840000000000003      6.2560000000000002      9.3840000000000003
   120   3                  10.948      7.8200000000000003                  10.948
   121   1                       0      9.3840000000000003      9.3840000000000003
   122   3      1.5640000000000001                  10.948                  10.948
   123   2      3.1280000000000001      9.3840000000000003      9.3840000000000003
   124   4      4.6920000000000002                  10.948                  10.948
   125   1      6.2560000000000002      9.3840000000000003      9.3840000000000003
   126   3      7.8200000000000003                  10.948                  10.948
   127   1      9.3840000000000003      9.3840000000000003      9.3840000000000003
   128   4                  10.948                  10.948                  10.948
