 # Bcc NiTi alloy oriented X=[100], Y=[010], Z=[001].
  
         128  atoms
           2  atom types
 
      0.000000000000      12.512000000000  xlo xhi
      0.000000000000      12.512000000000  ylo yhi
      0.000000000000      12.512000000000  zlo zhi
 
Masses
 
            1   58.69340000             # Ni
            2   47.86700000             # Ti
 
Atoms # atomic
 
         1    1        0.000000000000       0.000000000000       0.000000000000
         2    2        1.564000000000       1.564000000000       1.564000000000
         3    1        3.128000000000       0.000000000000       0.000000000000
         4    2        4.692000000000       1.564000000000       1.564000000000
         5    1        6.256000000000       0.000000000000       0.000000000000
         6    2        7.820000000000       1.564000000000       1.564000000000
         7    1        9.384000000000       0.000000000000       0.000000000000
         8    2       10.948000000000       1.564000000000       1.564000000000
         9    1        0.000000000000       3.128000000000       0.000000000000
        10    2        1.564000000000       4.692000000000       1.564000000000
        11    1        3.128000000000       3.128000000000       0.000000000000
        12    2        4.692000000000       4.692000000000       1.564000000000
        13    1        6.256000000000       3.128000000000       0.000000000000
        14    2        7.820000000000       4.692000000000       1.564000000000
        15    1        9.384000000000       3.128000000000       0.000000000000
        16    2       10.948000000000       4.692000000000       1.564000000000
        17    1        0.000000000000       6.256000000000       0.000000000000
        18    2        1.564000000000       7.820000000000       1.564000000000
        19    1        3.128000000000       6.256000000000       0.000000000000
        20    2        4.692000000000       7.820000000000       1.564000000000
        21    1        6.256000000000       6.256000000000       0.000000000000
        22    2        7.820000000000       7.820000000000       1.564000000000
        23    1        9.384000000000       6.256000000000       0.000000000000
        24    2       10.948000000000       7.820000000000       1.564000000000
        25    1        0.000000000000       9.384000000000       0.000000000000
        26    2        1.564000000000      10.948000000000       1.564000000000
        27    1        3.128000000000       9.384000000000       0.000000000000
        28    2        4.692000000000      10.948000000000       1.564000000000
        29    1        6.256000000000       9.384000000000       0.000000000000
        30    2        7.820000000000      10.948000000000       1.564000000000
        31    1        9.384000000000       9.384000000000       0.000000000000
        32    2       10.948000000000      10.948000000000       1.564000000000
        33    1        0.000000000000       0.000000000000       3.128000000000
        34    2        1.564000000000       1.564000000000       4.692000000000
        35    1        3.128000000000       0.000000000000       3.128000000000
        36    2        4.692000000000       1.564000000000       4.692000000000
        37    1        6.256000000000       0.000000000000       3.128000000000
        38    2        7.820000000000       1.564000000000       4.692000000000
        39    1        9.384000000000       0.000000000000       3.128000000000
        40    2       10.948000000000       1.564000000000       4.692000000000
        41    1        0.000000000000       3.128000000000       3.128000000000
        42    2        1.564000000000       4.692000000000       4.692000000000
        43    1        3.128000000000       3.128000000000       3.128000000000
        44    2        4.692000000000       4.692000000000       4.692000000000
        45    1        6.256000000000       3.128000000000       3.128000000000
        46    2        7.820000000000       4.692000000000       4.692000000000
        47    1        9.384000000000       3.128000000000       3.128000000000
        48    2       10.948000000000       4.692000000000       4.692000000000
        49    1        0.000000000000       6.256000000000       3.128000000000
        50    2        1.564000000000       7.820000000000       4.692000000000
        51    1        3.128000000000       6.256000000000       3.128000000000
        52    2        4.692000000000       7.820000000000       4.692000000000
        53    1        6.256000000000       6.256000000000       3.128000000000
        54    2        7.820000000000       7.820000000000       4.692000000000
        55    1        9.384000000000       6.256000000000       3.128000000000
        56    2       10.948000000000       7.820000000000       4.692000000000
        57    1        0.000000000000       9.384000000000       3.128000000000
        58    2        1.564000000000      10.948000000000       4.692000000000
        59    1        3.128000000000       9.384000000000       3.128000000000
        60    2        4.692000000000      10.948000000000       4.692000000000
        61    1        6.256000000000       9.384000000000       3.128000000000
        62    2        7.820000000000      10.948000000000       4.692000000000
        63    1        9.384000000000       9.384000000000       3.128000000000
        64    2       10.948000000000      10.948000000000       4.692000000000
        65    1        0.000000000000       0.000000000000       6.256000000000
        66    2        1.564000000000       1.564000000000       7.820000000000
        67    1        3.128000000000       0.000000000000       6.256000000000
        68    2        4.692000000000       1.564000000000       7.820000000000
        69    1        6.256000000000       0.000000000000       6.256000000000
        70    2        7.820000000000       1.564000000000       7.820000000000
        71    1        9.384000000000       0.000000000000       6.256000000000
        72    2       10.948000000000       1.564000000000       7.820000000000
        73    1        0.000000000000       3.128000000000       6.256000000000
        74    2        1.564000000000       4.692000000000       7.820000000000
        75    1        3.128000000000       3.128000000000       6.256000000000
        76    2        4.692000000000       4.692000000000       7.820000000000
        77    1        6.256000000000       3.128000000000       6.256000000000
        78    2        7.820000000000       4.692000000000       7.820000000000
        79    1        9.384000000000       3.128000000000       6.256000000000
        80    2       10.948000000000       4.692000000000       7.820000000000
        81    1        0.000000000000       6.256000000000       6.256000000000
        82    2        1.564000000000       7.820000000000       7.820000000000
        83    1        3.128000000000       6.256000000000       6.256000000000
        84    2        4.692000000000       7.820000000000       7.820000000000
        85    1        6.256000000000       6.256000000000       6.256000000000
        86    2        7.820000000000       7.820000000000       7.820000000000
        87    1        9.384000000000       6.256000000000       6.256000000000
        88    2       10.948000000000       7.820000000000       7.820000000000
        89    1        0.000000000000       9.384000000000       6.256000000000
        90    2        1.564000000000      10.948000000000       7.820000000000
        91    1        3.128000000000       9.384000000000       6.256000000000
        92    2        4.692000000000      10.948000000000       7.820000000000
        93    1        6.256000000000       9.384000000000       6.256000000000
        94    2        7.820000000000      10.948000000000       7.820000000000
        95    1        9.384000000000       9.384000000000       6.256000000000
        96    2       10.948000000000      10.948000000000       7.820000000000
        97    1        0.000000000000       0.000000000000       9.384000000000
        98    2        1.564000000000       1.564000000000      10.948000000000
        99    1        3.128000000000       0.000000000000       9.384000000000
       100    2        4.692000000000       1.564000000000      10.948000000000
       101    1        6.256000000000       0.000000000000       9.384000000000
       102    2        7.820000000000       1.564000000000      10.948000000000
       103    1        9.384000000000       0.000000000000       9.384000000000
       104    2       10.948000000000       1.564000000000      10.948000000000
       105    1        0.000000000000       3.128000000000       9.384000000000
       106    2        1.564000000000       4.692000000000      10.948000000000
       107    1        3.128000000000       3.128000000000       9.384000000000
       108    2        4.692000000000       4.692000000000      10.948000000000
       109    1        6.256000000000       3.128000000000       9.384000000000
       110    2        7.820000000000       4.692000000000      10.948000000000
       111    1        9.384000000000       3.128000000000       9.384000000000
       112    2       10.948000000000       4.692000000000      10.948000000000
       113    1        0.000000000000       6.256000000000       9.384000000000
       114    2        1.564000000000       7.820000000000      10.948000000000
       115    1        3.128000000000       6.256000000000       9.384000000000
       116    2        4.692000000000       7.820000000000      10.948000000000
       117    1        6.256000000000       6.256000000000       9.384000000000
       118    2        7.820000000000       7.820000000000      10.948000000000
       119    1        9.384000000000       6.256000000000       9.384000000000
       120    2       10.948000000000       7.820000000000      10.948000000000
       121    1        0.000000000000       9.384000000000       9.384000000000
       122    2        1.564000000000      10.948000000000      10.948000000000
       123    1        3.128000000000       9.384000000000       9.384000000000
       124    2        4.692000000000      10.948000000000      10.948000000000
       125    1        6.256000000000       9.384000000000       9.384000000000
       126    2        7.820000000000      10.948000000000      10.948000000000
       127    1        9.384000000000       9.384000000000       9.384000000000
       128    2       10.948000000000      10.948000000000      10.948000000000
