/home/sez26/TIGP-IIP/HEA_compression/LMP_Files/100/HEA_II.lmp (written by ASE) 

4000 	 atoms 
5  atom types
0.0      62.399999999999999  xlo xhi
0.0      31.199999999999999  ylo yhi
0.0      31.199999999999999  zlo zhi


Atoms 

     1   1                       0                       0                       0
     2   1      3.1200000000000001                       0                       0
     3   1      6.2400000000000002                       0                       0
     4   2      9.3599999999999994                       0                       0
     5   2                   12.48                       0                       0
     6   1                    15.6                       0                       0
     7   2      18.719999999999999                       0                       0
     8   1                   21.84                       0                       0
     9   2      24.960000000000001                       0                       0
    10   2      28.079999999999998                       0                       0
    11   2      31.199999999999999                       0                       0
    12   1                   34.32                       0                       0
    13   1      37.439999999999998                       0                       0
    14   1      40.560000000000002                       0                       0
    15   1                   43.68                       0                       0
    16   2      46.799999999999997                       0                       0
    17   2      49.920000000000002                       0                       0
    18   2      53.039999999999999                       0                       0
    19   2      56.159999999999997                       0                       0
    20   2      59.280000000000001                       0                       0
    21   2                       0      3.1200000000000001                       0
    22   2      3.1200000000000001      3.1200000000000001                       0
    23   1      6.2400000000000002      3.1200000000000001                       0
    24   2      9.3599999999999994      3.1200000000000001                       0
    25   1                   12.48      3.1200000000000001                       0
    26   1                    15.6      3.1200000000000001                       0
    27   2      18.719999999999999      3.1200000000000001                       0
    28   2                   21.84      3.1200000000000001                       0
    29   1      24.960000000000001      3.1200000000000001                       0
    30   2      28.079999999999998      3.1200000000000001                       0
    31   1      31.199999999999999      3.1200000000000001                       0
    32   2                   34.32      3.1200000000000001                       0
    33   1      37.439999999999998      3.1200000000000001                       0
    34   1      40.560000000000002      3.1200000000000001                       0
    35   2                   43.68      3.1200000000000001                       0
    36   2      46.799999999999997      3.1200000000000001                       0
    37   2      49.920000000000002      3.1200000000000001                       0
    38   1      53.039999999999999      3.1200000000000001                       0
    39   1      56.159999999999997      3.1200000000000001                       0
    40   2      59.280000000000001      3.1200000000000001                       0
    41   1                       0      6.2400000000000002                       0
    42   2      3.1200000000000001      6.2400000000000002                       0
    43   1      6.2400000000000002      6.2400000000000002                       0
    44   1      9.3599999999999994      6.2400000000000002                       0
    45   2                   12.48      6.2400000000000002                       0
    46   2                    15.6      6.2400000000000002                       0
    47   1      18.719999999999999      6.2400000000000002                       0
    48   2                   21.84      6.2400000000000002                       0
    49   2      24.960000000000001      6.2400000000000002                       0
    50   2      28.079999999999998      6.2400000000000002                       0
    51   2      31.199999999999999      6.2400000000000002                       0
    52   2                   34.32      6.2400000000000002                       0
    53   2      37.439999999999998      6.2400000000000002                       0
    54   2      40.560000000000002      6.2400000000000002                       0
    55   1                   43.68      6.2400000000000002                       0
    56   1      46.799999999999997      6.2400000000000002                       0
    57   1      49.920000000000002      6.2400000000000002                       0
    58   1      53.039999999999999      6.2400000000000002                       0
    59   1      56.159999999999997      6.2400000000000002                       0
    60   1      59.280000000000001      6.2400000000000002                       0
    61   2                       0      9.3599999999999994                       0
    62   2      3.1200000000000001      9.3599999999999994                       0
    63   2      6.2400000000000002      9.3599999999999994                       0
    64   2      9.3599999999999994      9.3599999999999994                       0
    65   2                   12.48      9.3599999999999994                       0
    66   1                    15.6      9.3599999999999994                       0
    67   1      18.719999999999999      9.3599999999999994                       0
    68   1                   21.84      9.3599999999999994                       0
    69   2      24.960000000000001      9.3599999999999994                       0
    70   1      28.079999999999998      9.3599999999999994                       0
    71   1      31.199999999999999      9.3599999999999994                       0
    72   1                   34.32      9.3599999999999994                       0
    73   2      37.439999999999998      9.3599999999999994                       0
    74   2      40.560000000000002      9.3599999999999994                       0
    75   1                   43.68      9.3599999999999994                       0
    76   1      46.799999999999997      9.3599999999999994                       0
    77   2      49.920000000000002      9.3599999999999994                       0
    78   1      53.039999999999999      9.3599999999999994                       0
    79   1      56.159999999999997      9.3599999999999994                       0
    80   1      59.280000000000001      9.3599999999999994                       0
    81   2                       0                   12.48                       0
    82   2      3.1200000000000001                   12.48                       0
    83   1      6.2400000000000002                   12.48                       0
    84   2      9.3599999999999994                   12.48                       0
    85   1                   12.48                   12.48                       0
    86   1                    15.6                   12.48                       0
    87   1      18.719999999999999                   12.48                       0
    88   2                   21.84                   12.48                       0
    89   1      24.960000000000001                   12.48                       0
    90   2      28.079999999999998                   12.48                       0
    91   1      31.199999999999999                   12.48                       0
    92   2                   34.32                   12.48                       0
    93   1      37.439999999999998                   12.48                       0
    94   2      40.560000000000002                   12.48                       0
    95   1                   43.68                   12.48                       0
    96   2      46.799999999999997                   12.48                       0
    97   2      49.920000000000002                   12.48                       0
    98   2      53.039999999999999                   12.48                       0
    99   1      56.159999999999997                   12.48                       0
   100   2      59.280000000000001                   12.48                       0
   101   2                       0                    15.6                       0
   102   2      3.1200000000000001                    15.6                       0
   103   1      6.2400000000000002                    15.6                       0
   104   2      9.3599999999999994                    15.6                       0
   105   2                   12.48                    15.6                       0
   106   1                    15.6                    15.6                       0
   107   2      18.719999999999999                    15.6                       0
   108   2                   21.84                    15.6                       0
   109   1      24.960000000000001                    15.6                       0
   110   2      28.079999999999998                    15.6                       0
   111   2      31.199999999999999                    15.6                       0
   112   2                   34.32                    15.6                       0
   113   2      37.439999999999998                    15.6                       0
   114   1      40.560000000000002                    15.6                       0
   115   1                   43.68                    15.6                       0
   116   1      46.799999999999997                    15.6                       0
   117   1      49.920000000000002                    15.6                       0
   118   1      53.039999999999999                    15.6                       0
   119   2      56.159999999999997                    15.6                       0
   120   1      59.280000000000001                    15.6                       0
   121   1                       0      18.719999999999999                       0
   122   2      3.1200000000000001      18.719999999999999                       0
   123   1      6.2400000000000002      18.719999999999999                       0
   124   2      9.3599999999999994      18.719999999999999                       0
   125   1                   12.48      18.719999999999999                       0
   126   2                    15.6      18.719999999999999                       0
   127   2      18.719999999999999      18.719999999999999                       0
   128   1                   21.84      18.719999999999999                       0
   129   2      24.960000000000001      18.719999999999999                       0
   130   2      28.079999999999998      18.719999999999999                       0
   131   1      31.199999999999999      18.719999999999999                       0
   132   2                   34.32      18.719999999999999                       0
   133   1      37.439999999999998      18.719999999999999                       0
   134   2      40.560000000000002      18.719999999999999                       0
   135   1                   43.68      18.719999999999999                       0
   136   1      46.799999999999997      18.719999999999999                       0
   137   1      49.920000000000002      18.719999999999999                       0
   138   1      53.039999999999999      18.719999999999999                       0
   139   1      56.159999999999997      18.719999999999999                       0
   140   1      59.280000000000001      18.719999999999999                       0
   141   2                       0                   21.84                       0
   142   1      3.1200000000000001                   21.84                       0
   143   2      6.2400000000000002                   21.84                       0
   144   2      9.3599999999999994                   21.84                       0
   145   2                   12.48                   21.84                       0
   146   1                    15.6                   21.84                       0
   147   2      18.719999999999999                   21.84                       0
   148   2                   21.84                   21.84                       0
   149   1      24.960000000000001                   21.84                       0
   150   1      28.079999999999998                   21.84                       0
   151   2      31.199999999999999                   21.84                       0
   152   2                   34.32                   21.84                       0
   153   2      37.439999999999998                   21.84                       0
   154   1      40.560000000000002                   21.84                       0
   155   1                   43.68                   21.84                       0
   156   1      46.799999999999997                   21.84                       0
   157   1      49.920000000000002                   21.84                       0
   158   2      53.039999999999999                   21.84                       0
   159   1      56.159999999999997                   21.84                       0
   160   1      59.280000000000001                   21.84                       0
   161   2                       0      24.960000000000001                       0
   162   1      3.1200000000000001      24.960000000000001                       0
   163   1      6.2400000000000002      24.960000000000001                       0
   164   2      9.3599999999999994      24.960000000000001                       0
   165   1                   12.48      24.960000000000001                       0
   166   1                    15.6      24.960000000000001                       0
   167   1      18.719999999999999      24.960000000000001                       0
   168   1                   21.84      24.960000000000001                       0
   169   2      24.960000000000001      24.960000000000001                       0
   170   1      28.079999999999998      24.960000000000001                       0
   171   2      31.199999999999999      24.960000000000001                       0
   172   1                   34.32      24.960000000000001                       0
   173   1      37.439999999999998      24.960000000000001                       0
   174   1      40.560000000000002      24.960000000000001                       0
   175   2                   43.68      24.960000000000001                       0
   176   2      46.799999999999997      24.960000000000001                       0
   177   1      49.920000000000002      24.960000000000001                       0
   178   2      53.039999999999999      24.960000000000001                       0
   179   2      56.159999999999997      24.960000000000001                       0
   180   1      59.280000000000001      24.960000000000001                       0
   181   2                       0      28.079999999999998                       0
   182   2      3.1200000000000001      28.079999999999998                       0
   183   2      6.2400000000000002      28.079999999999998                       0
   184   1      9.3599999999999994      28.079999999999998                       0
   185   1                   12.48      28.079999999999998                       0
   186   1                    15.6      28.079999999999998                       0
   187   1      18.719999999999999      28.079999999999998                       0
   188   2                   21.84      28.079999999999998                       0
   189   2      24.960000000000001      28.079999999999998                       0
   190   1      28.079999999999998      28.079999999999998                       0
   191   2      31.199999999999999      28.079999999999998                       0
   192   1                   34.32      28.079999999999998                       0
   193   1      37.439999999999998      28.079999999999998                       0
   194   1      40.560000000000002      28.079999999999998                       0
   195   2                   43.68      28.079999999999998                       0
   196   2      46.799999999999997      28.079999999999998                       0
   197   1      49.920000000000002      28.079999999999998                       0
   198   1      53.039999999999999      28.079999999999998                       0
   199   2      56.159999999999997      28.079999999999998                       0
   200   1      59.280000000000001      28.079999999999998                       0
   201   2                       0                       0      3.1200000000000001
   202   2      3.1200000000000001                       0      3.1200000000000001
   203   1      6.2400000000000002                       0      3.1200000000000001
   204   1      9.3599999999999994                       0      3.1200000000000001
   205   1                   12.48                       0      3.1200000000000001
   206   1                    15.6                       0      3.1200000000000001
   207   1      18.719999999999999                       0      3.1200000000000001
   208   1                   21.84                       0      3.1200000000000001
   209   1      24.960000000000001                       0      3.1200000000000001
   210   1      28.079999999999998                       0      3.1200000000000001
   211   1      31.199999999999999                       0      3.1200000000000001
   212   1                   34.32                       0      3.1200000000000001
   213   1      37.439999999999998                       0      3.1200000000000001
   214   1      40.560000000000002                       0      3.1200000000000001
   215   2                   43.68                       0      3.1200000000000001
   216   2      46.799999999999997                       0      3.1200000000000001
   217   1      49.920000000000002                       0      3.1200000000000001
   218   2      53.039999999999999                       0      3.1200000000000001
   219   1      56.159999999999997                       0      3.1200000000000001
   220   1      59.280000000000001                       0      3.1200000000000001
   221   1                       0      3.1200000000000001      3.1200000000000001
   222   2      3.1200000000000001      3.1200000000000001      3.1200000000000001
   223   2      6.2400000000000002      3.1200000000000001      3.1200000000000001
   224   1      9.3599999999999994      3.1200000000000001      3.1200000000000001
   225   1                   12.48      3.1200000000000001      3.1200000000000001
   226   2                    15.6      3.1200000000000001      3.1200000000000001
   227   1      18.719999999999999      3.1200000000000001      3.1200000000000001
   228   2                   21.84      3.1200000000000001      3.1200000000000001
   229   2      24.960000000000001      3.1200000000000001      3.1200000000000001
   230   2      28.079999999999998      3.1200000000000001      3.1200000000000001
   231   1      31.199999999999999      3.1200000000000001      3.1200000000000001
   232   1                   34.32      3.1200000000000001      3.1200000000000001
   233   1      37.439999999999998      3.1200000000000001      3.1200000000000001
   234   2      40.560000000000002      3.1200000000000001      3.1200000000000001
   235   2                   43.68      3.1200000000000001      3.1200000000000001
   236   1      46.799999999999997      3.1200000000000001      3.1200000000000001
   237   2      49.920000000000002      3.1200000000000001      3.1200000000000001
   238   2      53.039999999999999      3.1200000000000001      3.1200000000000001
   239   1      56.159999999999997      3.1200000000000001      3.1200000000000001
   240   1      59.280000000000001      3.1200000000000001      3.1200000000000001
   241   2                       0      6.2400000000000002      3.1200000000000001
   242   2      3.1200000000000001      6.2400000000000002      3.1200000000000001
   243   2      6.2400000000000002      6.2400000000000002      3.1200000000000001
   244   2      9.3599999999999994      6.2400000000000002      3.1200000000000001
   245   1                   12.48      6.2400000000000002      3.1200000000000001
   246   2                    15.6      6.2400000000000002      3.1200000000000001
   247   2      18.719999999999999      6.2400000000000002      3.1200000000000001
   248   2                   21.84      6.2400000000000002      3.1200000000000001
   249   1      24.960000000000001      6.2400000000000002      3.1200000000000001
   250   2      28.079999999999998      6.2400000000000002      3.1200000000000001
   251   2      31.199999999999999      6.2400000000000002      3.1200000000000001
   252   1                   34.32      6.2400000000000002      3.1200000000000001
   253   2      37.439999999999998      6.2400000000000002      3.1200000000000001
   254   1      40.560000000000002      6.2400000000000002      3.1200000000000001
   255   2                   43.68      6.2400000000000002      3.1200000000000001
   256   1      46.799999999999997      6.2400000000000002      3.1200000000000001
   257   2      49.920000000000002      6.2400000000000002      3.1200000000000001
   258   2      53.039999999999999      6.2400000000000002      3.1200000000000001
   259   1      56.159999999999997      6.2400000000000002      3.1200000000000001
   260   1      59.280000000000001      6.2400000000000002      3.1200000000000001
   261   2                       0      9.3599999999999994      3.1200000000000001
   262   2      3.1200000000000001      9.3599999999999994      3.1200000000000001
   263   2      6.2400000000000002      9.3599999999999994      3.1200000000000001
   264   2      9.3599999999999994      9.3599999999999994      3.1200000000000001
   265   1                   12.48      9.3599999999999994      3.1200000000000001
   266   2                    15.6      9.3599999999999994      3.1200000000000001
   267   1      18.719999999999999      9.3599999999999994      3.1200000000000001
   268   1                   21.84      9.3599999999999994      3.1200000000000001
   269   2      24.960000000000001      9.3599999999999994      3.1200000000000001
   270   1      28.079999999999998      9.3599999999999994      3.1200000000000001
   271   1      31.199999999999999      9.3599999999999994      3.1200000000000001
   272   2                   34.32      9.3599999999999994      3.1200000000000001
   273   1      37.439999999999998      9.3599999999999994      3.1200000000000001
   274   1      40.560000000000002      9.3599999999999994      3.1200000000000001
   275   2                   43.68      9.3599999999999994      3.1200000000000001
   276   2      46.799999999999997      9.3599999999999994      3.1200000000000001
   277   1      49.920000000000002      9.3599999999999994      3.1200000000000001
   278   1      53.039999999999999      9.3599999999999994      3.1200000000000001
   279   2      56.159999999999997      9.3599999999999994      3.1200000000000001
   280   2      59.280000000000001      9.3599999999999994      3.1200000000000001
   281   1                       0                   12.48      3.1200000000000001
   282   1      3.1200000000000001                   12.48      3.1200000000000001
   283   2      6.2400000000000002                   12.48      3.1200000000000001
   284   1      9.3599999999999994                   12.48      3.1200000000000001
   285   2                   12.48                   12.48      3.1200000000000001
   286   1                    15.6                   12.48      3.1200000000000001
   287   2      18.719999999999999                   12.48      3.1200000000000001
   288   2                   21.84                   12.48      3.1200000000000001
   289   2      24.960000000000001                   12.48      3.1200000000000001
   290   1      28.079999999999998                   12.48      3.1200000000000001
   291   2      31.199999999999999                   12.48      3.1200000000000001
   292   2                   34.32                   12.48      3.1200000000000001
   293   1      37.439999999999998                   12.48      3.1200000000000001
   294   2      40.560000000000002                   12.48      3.1200000000000001
   295   2                   43.68                   12.48      3.1200000000000001
   296   1      46.799999999999997                   12.48      3.1200000000000001
   297   1      49.920000000000002                   12.48      3.1200000000000001
   298   1      53.039999999999999                   12.48      3.1200000000000001
   299   1      56.159999999999997                   12.48      3.1200000000000001
   300   2      59.280000000000001                   12.48      3.1200000000000001
   301   2                       0                    15.6      3.1200000000000001
   302   2      3.1200000000000001                    15.6      3.1200000000000001
   303   1      6.2400000000000002                    15.6      3.1200000000000001
   304   1      9.3599999999999994                    15.6      3.1200000000000001
   305   2                   12.48                    15.6      3.1200000000000001
   306   2                    15.6                    15.6      3.1200000000000001
   307   1      18.719999999999999                    15.6      3.1200000000000001
   308   1                   21.84                    15.6      3.1200000000000001
   309   2      24.960000000000001                    15.6      3.1200000000000001
   310   2      28.079999999999998                    15.6      3.1200000000000001
   311   2      31.199999999999999                    15.6      3.1200000000000001
   312   2                   34.32                    15.6      3.1200000000000001
   313   1      37.439999999999998                    15.6      3.1200000000000001
   314   1      40.560000000000002                    15.6      3.1200000000000001
   315   2                   43.68                    15.6      3.1200000000000001
   316   2      46.799999999999997                    15.6      3.1200000000000001
   317   1      49.920000000000002                    15.6      3.1200000000000001
   318   1      53.039999999999999                    15.6      3.1200000000000001
   319   1      56.159999999999997                    15.6      3.1200000000000001
   320   2      59.280000000000001                    15.6      3.1200000000000001
   321   2                       0      18.719999999999999      3.1200000000000001
   322   2      3.1200000000000001      18.719999999999999      3.1200000000000001
   323   2      6.2400000000000002      18.719999999999999      3.1200000000000001
   324   2      9.3599999999999994      18.719999999999999      3.1200000000000001
   325   2                   12.48      18.719999999999999      3.1200000000000001
   326   2                    15.6      18.719999999999999      3.1200000000000001
   327   2      18.719999999999999      18.719999999999999      3.1200000000000001
   328   1                   21.84      18.719999999999999      3.1200000000000001
   329   1      24.960000000000001      18.719999999999999      3.1200000000000001
   330   1      28.079999999999998      18.719999999999999      3.1200000000000001
   331   2      31.199999999999999      18.719999999999999      3.1200000000000001
   332   1                   34.32      18.719999999999999      3.1200000000000001
   333   1      37.439999999999998      18.719999999999999      3.1200000000000001
   334   2      40.560000000000002      18.719999999999999      3.1200000000000001
   335   2                   43.68      18.719999999999999      3.1200000000000001
   336   2      46.799999999999997      18.719999999999999      3.1200000000000001
   337   1      49.920000000000002      18.719999999999999      3.1200000000000001
   338   2      53.039999999999999      18.719999999999999      3.1200000000000001
   339   1      56.159999999999997      18.719999999999999      3.1200000000000001
   340   1      59.280000000000001      18.719999999999999      3.1200000000000001
   341   1                       0                   21.84      3.1200000000000001
   342   1      3.1200000000000001                   21.84      3.1200000000000001
   343   1      6.2400000000000002                   21.84      3.1200000000000001
   344   1      9.3599999999999994                   21.84      3.1200000000000001
   345   2                   12.48                   21.84      3.1200000000000001
   346   1                    15.6                   21.84      3.1200000000000001
   347   2      18.719999999999999                   21.84      3.1200000000000001
   348   2                   21.84                   21.84      3.1200000000000001
   349   2      24.960000000000001                   21.84      3.1200000000000001
   350   2      28.079999999999998                   21.84      3.1200000000000001
   351   2      31.199999999999999                   21.84      3.1200000000000001
   352   1                   34.32                   21.84      3.1200000000000001
   353   2      37.439999999999998                   21.84      3.1200000000000001
   354   1      40.560000000000002                   21.84      3.1200000000000001
   355   1                   43.68                   21.84      3.1200000000000001
   356   1      46.799999999999997                   21.84      3.1200000000000001
   357   2      49.920000000000002                   21.84      3.1200000000000001
   358   2      53.039999999999999                   21.84      3.1200000000000001