ITEM: TIMESTEP
0
ITEM: NUMBER OF ATOMS
128
ITEM: BOX BOUNDS pp pp pp
4.4689551092048245e-02 1.2467310448907998e+01
3.8981859670594567e-02 1.2473018140329412e+01
3.8780192034021853e-02 1.2473219807965975e+01
ITEM: ATOMS id type x y z v_sa_hydro v_sa_von
65 4 1.5894 1.52638 1.50895 -15.5242 3.98837
7 1 5.9998 2.93127 0.0784918 -1.45516 8.63773
66 3 4.62776 1.5879 1.67603 -0.192188 8.93461
67 4 7.81831 1.68948 1.51468 -10.569 13.5744
21 2 12.3524 3.01687 3.03074 12.9014 4.63931
24 2 9.47964 2.97323 3.07008 8.48032 5.56615
68 3 10.9187 1.52945 1.5514 -6.21096 11.2907
6 2 3.11252 3.15066 0.0923433 10.0517 7.16169
69 5 1.5338 4.70851 1.58908 -4.43283 4.98665
22 2 3.17606 3.18545 3.05997 10.5423 2.68941
23 2 6.16274 3.16958 3.04597 9.92098 3.76093
70 5 4.73338 4.7602 1.54801 -10.5482 11.8979
71 3 7.77723 4.86025 1.643 1.04267 11.7874
72 5 10.8023 4.67711 1.49897 -5.89858 13.1076
10 2 3.06937 6.38104 0.126401 11.969 5.5573
73 5 1.57627 7.91238 1.67795 -9.43514 8.06223
26 1 3.29909 6.41443 3.07927 3.71624 5.92166
74 3 4.79416 7.86222 1.58735 -2.87318 9.87528
14 2 3.1771 9.35874 0.165683 14.3933 8.94831
30 1 3.36471 9.30015 3.06338 1.72154 8.49501
11 2 6.3726 6.47368 0.168135 9.37849 5.12809
27 2 6.28496 6.386 2.97997 11.6747 9.08062
75 3 7.81724 7.93115 1.58707 -6.51668 8.36216
12 2 9.30862 6.48223 0.0957091 11.8495 7.79762
15 2 6.30333 9.36384 0.175644 14.7419 6.04309
25 1 12.243 6.39639 2.86699 -0.43328 6.92276
9 2 12.4619 6.39965 0.0598281 12.5172 7.65673
28 1 9.46205 6.52449 2.86785 0.460419 10.8718
76 3 10.8581 7.9473 1.4758 -4.89312 10.907
77 3 1.58696 10.9072 1.58902 -0.583205 14.8472
13 2 0.0569939 9.4404 0.0678492 14.2004 7.35776
2 1 3.29067 12.2854 0.324884 -1.322 6.66618
18 2 3.15753 12.3159 3.05858 11.9914 7.84177
3 1 6.14659 12.4586 0.232117 5.36808 5.93969
19 1 6.24978 12.4146 2.97503 5.04471 3.45614
78 3 4.75245 10.8378 1.6257 -2.17501 9.7636
31 2 6.33811 9.38874 3.06138 17.092 3.64765
79 3 7.83776 10.9213 1.58875 -2.40292 9.21689
16 2 9.31122 9.39934 0.102463 15.2884 6.84682
32 2 9.3487 9.49677 3.00096 16.7979 3.02863
1 2 12.3565 12.4346 0.0623714 12.3588 8.80658
4 2 9.41123 12.4707 0.0709531 13.3989 6.26486
17 1 12.3279 12.3897 3.02267 6.57785 5.43791
20 2 9.38824 12.4296 3.01518 16.7498 3.3365
29 1 12.2298 9.5341 2.84299 -1.87433 7.81011
80 3 10.8274 10.9643 1.47766 -5.44317 11.4763
81 5 1.60911 1.52222 4.56549 -7.30241 9.81223
82 4 4.68522 1.58525 4.68452 -10.6657 5.81929
83 5 7.78948 1.57641 4.59348 -11.7752 4.77181
37 1 12.2479 2.93972 5.9404 0.0807002 6.22388
40 1 9.47733 3.07807 6.07241 3.23984 9.28452
84 3 10.8556 1.55442 4.50307 -3.82192 3.67244
33 1 12.3003 0.0973187 5.93641 2.94848 6.83111
85 4 1.53686 4.7228 4.71415 -3.25971 6.72657
86 5 4.68258 4.75772 4.67444 -8.75081 6.61159
87 4 7.80742 4.67173 4.58838 -8.38617 9.1669
88 4 10.8931 4.81666 4.61285 -7.19983 11.2402
89 3 1.73161 7.73508 4.78559 1.52085 10.1819
90 5 4.81446 7.84105 4.76039 -4.16841 8.04203
91 4 7.95074 7.78018 4.62944 -8.23498 9.38386
92 4 11.1344 7.99724 4.70399 -1.40437 7.73872
93 4 1.45949 10.7143 4.64753 -1.7927 13.3831
94 4 4.68973 10.9442 4.71041 -12.2219 9.77195
35 2 6.45999 12.3899 6.15874 8.50572 8.29148
47 1 6.52549 9.55856 6.06322 -0.50998 6.46435
95 3 7.82679 10.9666 4.50691 -3.02875 9.50134
48 1 9.26887 9.63408 5.99484 -0.178048 4.83869
36 1 9.39763 12.413 5.94682 4.00813 7.86597
96 3 10.8331 10.9421 4.51892 -5.57569 14.5239
97 4 1.43787 1.66454 7.70475 -7.80358 10.1966
54 2 3.03904 3.07012 9.30756 11.0832 4.33316
50 1 2.86767 0.0649757 9.18425 0.794014 8.84105
98 5 4.648 1.53641 7.78013 -5.52002 8.8883
99 4 7.80983 1.5861 7.76471 -14.2223 9.96135
100 5 10.8216 1.47009 7.80022 -7.27462 16.2219
101 3 1.63963 4.74358 7.86509 0.953058 6.16022
38 1 3.17376 3.29115 6.3118 1.88659 4.14961
39 1 6.20624 3.26676 6.31894 2.89804 4.63279
102 5 4.6789 4.70798 7.9288 -10.2907 7.99678
43 1 6.31911 6.04428 6.40618 2.49653 5.81279
103 5 7.89257 4.61936 8.0151 -3.00656 11.6391
44 1 9.32828 6.05859 6.439 0.0274492 4.22575
104 4 11.1163 4.58073 7.84148 -1.38564 6.52947
41 1 0.313801 6.42005 6.47423 -0.787082 5.18678
105 3 1.67841 7.82312 7.91519 -8.7265 8.30167
45 2 0.298875 9.18372 6.49325 4.6279 3.23699
46 1 3.03475 9.2921 6.40292 1.6123 8.23764
42 2 3.1519 6.3178 6.36485 14.4843 4.46573
106 5 4.75374 7.83847 7.90099 -8.47825 3.466
107 4 7.81068 7.85006 7.80685 -11.4059 7.62598
108 5 10.9445 7.76458 7.84166 -3.99793 6.36094
34 2 2.8871 12.3423 6.26561 9.56042 5.75394
109 3 1.57832 10.8871 7.80594 0.519779 10.5319
110 4 4.73058 10.908 7.8211 -7.09175 9.19925
111 5 7.90345 10.9572 7.84193 -5.95154 14.0465
112 4 11.0065 10.8424 7.69374 -3.94793 12.9814
49 1 0.102838 0.0731801 9.4813 3.40392 7.74538
113 3 1.56421 1.59155 10.958 -1.9114 5.97162
55 2 6.22415 3.02843 9.44554 12.0496 6.07529
114 4 4.54706 1.49838 10.9376 -8.56267 7.55357
51 1 6.38175 0.131466 9.40971 -0.381607 6.02121
115 3 7.78671 1.56127 10.9446 -0.658851 10.8648
52 2 9.32997 0.113395 9.59663 9.2321 6.07412
53 1 12.3899 2.87479 9.60834 0.198962 7.79792
5 2 12.3823 2.99933 12.4492 13.1095 3.75933
8 1 9.56848 2.90954 12.3763 -1.84015 7.4586
56 1 9.42556 2.91876 9.64314 1.24284 7.60569
116 3 10.9334 1.46855 10.9938 -7.39622 9.52635
117 4 1.55481 4.69172 10.9196 -9.09729 7.61849
118 4 4.68591 4.71459 10.9485 -14.1823 9.92112
119 4 7.79716 4.6331 11.1706 -4.31773 8.11007
120 5 10.91 4.74477 10.9037 -7.31811 7.70488
57 2 0.224503 6.43197 9.39724 10.7206 9.54164
58 1 3.03189 6.39936 9.41318 1.23823 7.80716
121 3 1.62518 7.86404 11.0407 1.22577 7.02256
61 1 0.271979 9.31498 9.394 3.67656 6.82539
62 2 3.0725 9.31561 9.40918 12.3348 8.08486
122 5 4.71013 7.80662 11.0248 -13.9756 8.31657
59 2 6.3616 6.29867 9.50277 11.6228 7.29201
123 3 7.78183 7.83471 11.062 -2.48861 7.46297
60 1 9.21656 6.40189 9.54782 2.49589 8.16038
63 2 6.36626 9.2806 9.55664 8.46117 4.47248
64 1 9.20492 9.27595 9.57726 0.375939 5.81491
124 5 10.9674 7.84407 10.9599 -15.6296 11.4637
125 5 1.63869 10.9588 11.0058 -8.27794 10.3595
126 4 4.70654 10.8544 10.9239 -15.2686 8.76026
127 5 7.7935 10.9627 11.0456 -15.4683 7.06056
128 5 10.9125 10.9137 10.9021 -13.3423 9.03085
ITEM: TIMESTEP
1000
ITEM: NUMBER OF ATOMS
128
ITEM: BOX BOUNDS pp pp pp
-3.5878764837537602e-02 1.2547878764837566e+01
6.9362940209882318e-02 1.2442637059790147e+01
2.8373912588314454e-02 1.2483626087411690e+01
ITEM: ATOMS id type x y z v_sa_hydro v_sa_von
65 4 1.47441 1.57474 1.5942 -11.1753 11.0276
7 1 6.3806 2.90104 0.0947024 1.4489 7.1808
66 3 4.64111 1.60564 1.56031 3.84726 11.8761
67 4 7.93723 1.63021 1.68524 -19.796 11.7965
21 2 12.1481 2.72945 3.1235 7.05105 8.09418
24 2 9.43989 3.00858 3.21856 6.94899 10.9443
68 3 10.9379 1.4647 1.53758 -4.45276 14.9025
6 2 3.17252 3.25814 0.336893 4.88687 5.71505
69 5 1.5321 4.64149 1.64229 -5.29934 17.8937
22 2 3.28807 3.48409 3.25859 6.54229 14.7289
23 2 6.24965 3.13803 2.85345 9.19164 9.45042
70 5 4.74126 4.81088 1.4968 -4.77955 12.1022
71 3 7.8923 4.82576 1.54565 4.01599 10.7089
72 5 11.0599 4.71355 1.59238 -12.658 14.2197
10 2 3.15501 6.40773 12.4804 9.06241 3.58545
73 5 1.50748 7.88573 1.67014 -8.16208 14.8891
26 1 2.77472 6.07496 3.20996 2.45721 10.2357
74 3 4.83785 7.80213 1.45784 3.02833 11.7776
14 2 3.04995 9.0968 12.4787 11.16 7.55357
30 1 3.40526 9.4217 2.83077 0.250733 7.72826
11 2 6.59108 6.42006 0.0511445 8.54906 9.57135
27 2 6.59459 6.37311 2.79572 8.65562 8.2445
75 3 7.94033 7.92016 1.52622 -4.97819 11.7559
12 2 9.50865 6.3803 0.0352518 12.983 8.10367
15 2 6.23044 9.22955 0.117943 11.8523 8.01425
25 1 12.4221 6.4352 2.94674 1.70753 10.0514
9 2 12.372 6.43602 0.0949302 8.92778 2.16283
28 1 9.50111 6.44567 2.88105 1.26298 12.7891
76 3 10.9134 7.73046 1.47947 -7.81644 5.92565
77 3 1.49665 10.9044 1.53847 0.764625 18.9624
13 2 -0.032221 9.40162 12.4012 14.0051 4.09547
2 1 3.19816 12.2054 0.161747 -0.324973 9.30416
18 2 3.19603 12.3542 2.78646 6.56227 10.0967
3 1 6.2763 0.112144 0.122734 4.20733 10.3853
19 1 6.18165 0.0841789 2.83198 3.409 10.5385
78 3 4.70755 10.7967 1.46699 -1.97995 19.7411
31 2 6.20198 9.44287 2.91954 17.6334 7.09505
79 3 7.86761 10.8512 1.54718 -4.8798 11.0573
16 2 9.32343 9.28185 0.104911 14.7622 4.69889
32 2 9.41369 9.55236 2.9706 14.8044 8.62228
1 2 -0.00742959 12.4563 0.0459013 13.3261 10.2379
4 2 9.46495 12.284 0.151823 11.8684 9.21189
17 1 12.2821 12.2912 2.9608 6.00636 8.17523
20 2 9.33875 12.2547 2.97288 11.6522 8.62271
29 1 12.4492 9.41344 2.8479 0.36309 10.4504
80 3 10.8512 10.7617 1.49202 -1.67078 10.5338
81 5 1.56092 1.54103 4.57328 -2.68804 14.936
82 4 4.6694 1.71321 4.55874 -11.5092 15.2155
83 5 7.89239 1.61472 4.68868 -6.62621 10.3977
37 1 12.1037 2.83783 5.86386 -5.17591 10.198
40 1 9.4759 3.40539 6.2599 1.1175 15.3949
84 3 10.8591 1.39233 4.53572 -5.18191 9.7588
33 1 12.4971 12.4195 5.81804 1.78306 3.48976
85 4 1.3476 4.58972 4.94489 2.32693 8.58647
86 5 4.83751 4.74571 4.68218 -3.56571 18.026
87 4 7.79388 4.72397 4.60306 -7.95412 16.7961
88 4 10.8809 4.76674 4.72009 -9.19342 19.2531
89 3 1.59969 7.78503 4.67344 4.36228 4.67285
90 5 4.63225 7.94878 4.67183 6.18544 5.67052
91 4 7.86991 7.84149 4.57661 -4.49785 11.8458
92 4 11.0468 7.93738 4.84562 -0.359714 10.3718
93 4 1.38504 10.7152 4.52698 -0.434353 10.4859
94 4 4.55623 11.1266 4.69079 -5.00053 12.655
35 2 6.29288 12.4254 6.37109 7.8257 8.58953
47 1 6.40658 9.58279 5.92933 1.19673 3.96783
95 3 7.71989 11.021 4.38516 2.6268 10.1333
48 1 9.24389 9.65943 6.03006 -1.54107 15.1882
36 1 9.45115 12.2334 5.93565 -0.297603 9.20081
96 3 10.8839 10.7471 4.62856 -5.62218 20.2601
97 4 1.30992 1.72493 7.65417 -7.03149 16.5471
54 2 3.02931 3.04292 9.00795 4.12742 8.05999
50 1 2.74766 0.21828 9.2074 2.55393 5.47736
98 5 4.58415 1.54834 7.7768 -9.42604 10.3382
99 4 7.9088 1.5124 7.7798 -12.201 4.29204
100 5 10.9229 1.34969 7.79096 -3.71212 21.86
101 3 1.57387 4.73852 7.97276 -3.72707 5.03128
38 1 3.205 3.1736 6.24822 3.62649 9.90656
39 1 6.24483 3.24109 6.43464 3.28775 5.66395
102 5 4.73837 4.78617 7.99835 -5.12472 11.7636
43 1 6.21933 6.13734 6.39251 0.477413 9.14859
103 5 7.79863 4.70629 8.00769 -7.11778 6.54263
44 1 9.38334 6.16487 6.55907 -0.555832 9.61457
104 4 11.2486 4.5288 7.90601 0.336783 13.4555
41 1 0.330954 6.38389 6.52311 -3.23394 12.3404
105 3 1.66487 7.74874 7.83529 -9.36238 9.44037
45 2 0.127116 9.19916 6.4557 7.40199 3.71357
46 1 2.97059 9.46539 6.48009 3.40565 6.01628
42 2 3.05463 6.49601 6.34093 13.4854 8.19895
106 5 4.71905 7.89363 7.77767 -5.32933 11.653
107 4 7.85496 7.85859 7.71493 -8.81458 10.6977
108 5 11.0275 7.70967 7.90795 -5.76219 14.4343
34 2 3.05214 12.3991 6.3206 10.0628 10.8201
109 3 1.38033 10.9069 7.8617 6.62255 11.6871
110 4 4.59165 10.8875 7.98405 -7.22 14.8906
111 5 7.79784 10.8608 7.72446 -5.70264 20.2837
112 4 11.0483 10.7732 7.70807 -4.95464 14.0687
49 1 0.101766 0.149069 9.55739 1.60429 6.33172
113 3 1.43713 1.71579 11.0298 0.610003 7.50586
55 2 6.3679 3.03661 9.34895 9.85704 7.32172
114 4 4.54887 1.68824 10.8988 -2.42944 10.2882
51 1 6.37014 0.343794 9.59848 -1.62911 8.38486
115 3 7.84271 1.64085 11.0563 2.60376 15.1898
52 2 9.19702 12.3756 9.53818 8.78838 13.8874
53 1 12.4392 2.88507 9.47323 -4.1848 11.3247
5 2 12.4293 3.11619 0.132434 7.9041 6.67159
8 1 9.59548 3.08356 12.4877 3.83367 6.84915
56 1 9.5898 2.85688 9.67324 4.96477 5.43476
116 3 11.1837 1.59145 11.0825 -3.69238 12.925
117 4 1.4926 4.64643 10.9165 -8.78773 9.91773
118 4 4.62997 4.73197 10.9596 -10.3134 11.6116
119 4 7.82332 4.72414 11.041 -11.3147 8.41113
120 5 11.0502 4.69273 11.0188 -12.0317 5.09236
57 2 0.311441 6.37314 9.48806 3.96213 15.0705
58 1 2.75436 6.45658 9.4818 -5.79566 12.5659
121 3 1.54979 7.80645 11.0754 -1.38463 8.52383
61 1 0.235941 9.12888 9.25158 1.89204 6.88574
62 2 3.00749 9.27852 9.4499 12.5073 6.57902
122 5 4.69996 7.8068 10.9801 -13.2126 13.1892
59 2 6.34492 6.29984 9.44735 9.03181 7.96711
123 3 7.86044 7.7732 10.9346 -0.0613937 8.54362
60 1 9.40362 6.38254 9.6158 0.582272 9.96658
63 2 6.27705 9.27755 9.64991 6.68807 4.38721
64 1 9.19805 9.4911 9.57945 1.55552 6.03613
124 5 10.9938 7.80948 10.927 -15.724 14.6035
125 5 1.55216 10.9279 11.0364 -4.14084 4.94319
126 4 4.82414 10.9305 10.9912 -16.8514 10.1253
127 5 7.78344 10.9956 11.021 -20.0688 17.928
128 5 10.9166 10.948 10.9581 -6.4225 6.71592
