ITEM: TIMESTEP
0
ITEM: NUMBER OF ATOMS
128
ITEM: BOX BOUNDS pp pp pp
4.3138634921567567e-02 1.2468861365078485e+01
3.1040314950249410e-02 1.2480959685049706e+01
4.4875883245652885e-02 1.2467124116754398e+01
ITEM: ATOMS id type x y z v_sa_hydro v_sa_von
65 5 1.69918 1.52605 1.67713 -8.7442 9.20267
5 1 0.121148 2.86431 0.170929 -1.55785 8.06774
66 4 4.72296 1.54921 1.58019 -8.17527 8.47723
67 5 7.806 1.43255 1.52446 -8.11805 8.06032
68 5 10.934 1.492 1.6392 -5.24838 5.45432
69 5 1.54768 4.73742 1.69088 -8.30982 8.80417
70 4 4.61032 4.69129 1.65425 -7.68931 7.78733
23 1 6.37287 3.16156 3.08253 1.70833 6.63767
24 1 9.19261 3.16027 2.99862 2.08222 3.28729
71 4 7.76623 4.76967 1.45988 -8.32104 10.542
72 4 10.9257 4.68384 1.41951 -3.38844 7.21885
73 4 1.66889 7.82197 1.56351 -12.1998 8.87842
11 1 6.09439 6.57181 0.233281 -0.432977 4.57791
27 1 6.15081 6.42408 3.02525 4.28123 8.42493
74 3 4.64136 7.90228 1.61426 1.48215 11.3904
75 3 7.80327 7.86487 1.59388 2.16515 12.6691
28 2 9.28031 6.35737 2.99135 10.3549 3.1828
76 5 10.9824 7.85075 1.63889 -4.57191 7.10486
77 5 1.54209 10.8827 1.68132 -3.50768 14.4297
78 5 4.62867 10.8789 1.59406 -7.95838 7.43113
79 4 7.74495 10.7948 1.53169 -10.1536 6.72658
80 4 10.9205 10.9148 1.55463 -10.0165 5.40165
17 2 0.258817 0.178282 3.34596 7.87439 6.41891
21 1 0.229036 3.0614 3.28624 3.70968 9.68892
33 2 0.084481 0.273725 6.14265 4.33836 6.08843
81 3 1.61899 1.63671 4.81116 -2.71279 7.32487
82 5 4.71572 1.64518 4.72363 -5.2839 10.1116
83 4 7.77788 1.57932 4.74346 -10.6906 9.74377
84 5 10.8776 1.61791 4.70484 -7.34435 7.7007
22 1 3.05018 3.29539 3.46835 1.90859 5.43864
37 1 0.0579141 3.28328 6.25394 8.59678 5.7708
38 1 3.10951 3.2677 6.24402 8.03726 4.39059
85 3 1.61443 4.78225 4.79642 -2.90211 6.47869
86 3 4.71286 4.7965 4.77228 0.624112 3.5595
87 5 7.76757 4.78497 4.67419 -6.89048 6.03184
88 4 10.9258 4.77159 4.58243 -7.8614 7.83851
25 2 0.239194 6.34761 3.36101 8.58014 5.39515
29 1 0.333943 9.21363 3.43018 -1.1357 3.73291
89 3 1.67093 7.73409 4.81199 -7.22162 5.87524
26 1 3.18487 6.29555 3.32063 5.43132 8.95356
30 1 3.18652 9.30255 3.37502 5.72638 6.63449
31 2 6.12295 9.33467 3.17171 15.1946 8.60217
42 2 3.2138 6.26096 6.1174 12.1426 12.0112
90 3 4.75603 7.77608 4.70986 -4.13784 11.5713
46 1 3.29014 9.09311 6.15246 -1.12143 7.28222
47 2 6.1806 9.35285 6.22155 14.2648 7.13542
32 2 9.23017 9.332 3.15657 8.74694 7.72839
91 4 7.77722 7.82884 4.69014 -19.2735 5.76753
92 5 10.9194 7.82155 4.76701 -11.6726 6.37019
93 4 1.66796 10.9255 4.99837 -7.93099 2.99864
18 1 3.18363 12.3859 3.39466 2.85228 8.0413
19 2 6.19874 12.2949 3.28691 12.7069 3.56545
35 1 6.19168 12.2649 6.18152 2.38209 7.85128
94 3 4.75564 10.8555 4.69431 -3.11215 11.8207
20 1 9.125 12.3133 3.28637 -0.434058 5.38345
95 3 7.75035 10.8239 4.70333 -1.49267 7.58125
36 2 9.28669 12.2813 6.11792 7.39404 6.94594
48 2 9.35925 9.38423 6.22527 10.7757 9.59024
96 4 10.9694 10.9146 4.61426 -10.3098 6.89245
97 4 1.5329 1.56844 7.88621 -7.97864 6.34056
98 5 4.68132 1.6233 7.83965 -4.06548 8.06749
34 2 3.16512 0.234203 6.2966 7.94012 8.2686
99 4 7.78762 1.59584 7.76304 -8.56204 10.566
100 4 10.8284 1.57566 7.76694 -9.81376 7.7603
101 3 1.54325 4.74647 7.79713 -2.18057 9.13039
39 1 6.22213 3.44396 6.37693 3.7941 6.20301
102 4 4.60783 4.8731 7.9097 -9.37856 7.88234
40 1 9.36156 3.46923 6.36874 1.79223 5.50643
103 3 7.84855 4.88322 7.78288 -2.27474 6.12733
55 1 6.43369 3.36462 9.21827 1.23758 5.16722
104 3 10.9209 4.86734 7.76324 -3.02014 7.9756
53 1 12.3315 3.41062 9.13332 1.43381 7.40181
56 1 9.4342 3.43095 9.19793 3.47029 8.76326
41 1 0.106276 6.2615 6.32795 6.17861 4.33533
105 5 1.75025 7.75519 7.90881 -6.07972 8.81957
45 2 0.16683 9.07912 6.37005 8.6665 8.92985
43 2 6.21351 6.32214 6.2915 12.9411 9.44536
106 3 4.79694 7.81222 7.7356 -2.50626 6.18082
107 5 7.86507 7.86609 7.81411 -13.1302 10.5602
59 2 6.44147 6.30242 9.27392 7.49964 3.3566
44 2 9.40434 6.29858 6.36903 11.6812 6.66171
108 3 11.0039 7.81076 7.82163 -0.665391 10.2436
57 2 12.4138 6.29736 9.32186 17.4397 5.08306
60 2 9.49724 6.35646 9.31583 16.2396 5.41134
109 3 1.58487 10.8719 7.92772 -3.78157 12.6021
110 5 4.54813 10.8954 7.73263 -8.15697 9.25893
51 2 6.08684 12.2681 9.3513 10.0714 6.06306
63 1 6.07038 9.40082 9.33341 3.66601 7.04723
111 5 7.82749 10.9278 7.77569 -7.87713 11.3769
112 4 11.0699 10.8853 7.70141 -8.77145 7.25801
6 2 2.93569 3.07835 12.3852 8.00482 7.01086
113 3 1.62608 1.52701 10.9058 -1.46899 8.22703
114 4 4.66705 1.53951 10.8586 -11.227 4.85589
7 2 6.40681 2.91459 12.402 5.72271 4.78884
115 5 7.86148 1.50821 10.7874 -5.53097 5.21168
8 2 9.36788 2.88967 12.4356 8.60821 3.58913
116 5 10.9949 1.66228 10.8366 -3.3777 11.9297
54 1 2.92602 3.2726 9.40792 2.31573 5.52814
10 2 3.00768 6.22244 12.4227 10.3473 10.2322
58 1 2.84621 6.01623 9.58229 -3.85643 5.27901
117 5 1.35123 4.63152 11.0159 -10.8849 5.57727
118 4 4.73797 4.62457 11.0392 -6.59812 11.1861
119 4 7.9115 4.72211 10.9112 -11.4209 9.5778
120 3 10.8671 4.81671 10.8238 -2.19789 15.1014
121 3 1.51651 7.79835 10.9219 -5.15151 9.09881
13 2 0.0727923 9.36132 12.2527 12.4565 7.30292
61 2 0.117278 9.30154 9.38127 16.6684 6.11413
15 2 6.02249 9.33696 12.422 12.8366 10.0042
122 4 4.56526 7.72718 10.8099 -6.87689 15.4994
123 5 7.78901 7.82023 10.9422 -5.97408 10.0606
9 2 12.402 6.4623 12.2838 7.78271 6.31888
12 1 9.57836 6.53701 12.3526 0.293411 10.0606
124 3 11.0173 7.8295 10.8021 -6.20788 9.63388
16 1 9.60435 9.30074 12.2795 2.60453 6.31846
64 1 9.59955 9.34388 9.36772 4.88425 6.25973
1 1 0.118868 12.451 12.3057 5.87388 7.72019
2 1 3.02561 12.3402 12.2858 3.43471 6.49717
14 2 3.07949 9.41251 12.334 12.5478 8.24882
49 1 0.131199 12.287 9.54192 1.00165 8.07854
50 2 3.05626 12.3292 9.42404 13.4245 7.67498
62 1 3.07772 9.51719 9.47683 -0.625944 8.72642
125 3 1.5711 10.8235 10.9356 -5.91524 8.62836
3 2 6.18769 12.3439 12.31 10.4735 6.98223
126 3 4.66068 10.8863 10.9112 -1.11259 7.86813
127 5 7.81373 10.8706 10.8705 -10.0436 12.8535
4 2 9.4918 12.432 12.2518 11.5588 6.09365
52 2 9.55102 12.2499 9.41506 8.4351 4.56585
128 3 10.9842 10.8871 10.8786 -2.84499 12.3522
ITEM: TIMESTEP
1000
ITEM: NUMBER OF ATOMS
128
ITEM: BOX BOUNDS pp pp pp
6.3798996453379608e-02 1.2448201003546636e+01
-2.7947317653402415e-02 1.2539947317653361e+01
-1.3224298357747521e-02 1.2525224298357791e+01
ITEM: ATOMS id type x y z v_sa_hydro v_sa_von
65 5 1.60828 1.55844 1.58916 0.878612 15.4871
5 1 0.00518666 3.24924 12.1087 0.588201 12.7959
66 4 4.7269 1.56197 1.55476 -5.77205 6.62222
67 5 7.92462 1.39456 1.49413 -4.92708 9.53318
68 5 11.0481 1.48762 1.39757 -7.11295 7.22179
69 5 1.50269 4.77647 1.45863 0.513028 7.72113
70 4 4.67888 4.76996 1.58212 -3.34701 8.88632
23 1 6.44592 2.92339 3.12401 0.322788 7.04005
24 1 9.1834 2.87415 3.13839 1.85303 10.808
71 4 7.72211 4.67541 1.54099 -9.40894 14.0174
72 4 10.7572 4.50624 1.5377 -3.40074 7.28225
73 4 1.66987 7.913 1.68341 -8.59459 9.30507
11 1 6.18427 6.49076 0.107487 2.97202 7.15961
27 1 6.26827 6.53331 2.9167 3.02537 12.1098
74 3 4.68993 8.00997 1.52733 -0.881921 4.15574
75 3 7.82457 8.00526 1.29896 4.21046 12.0568
28 2 9.14381 6.30346 3.00002 11.3479 6.42348
76 5 10.9483 7.74991 1.68659 -3.30892 8.77563
77 5 1.63779 11.0359 1.59901 -7.6023 10.9377
78 5 4.73311 10.9988 1.4798 -9.88288 13.5966
79 4 7.85068 10.942 1.74704 -8.15145 9.96335
80 4 10.9206 10.8799 1.50135 -9.39406 10.9414
17 2 12.4718 -0.096507 3.24997 13.517 5.86836
21 1 0.324526 3.11613 3.31296 0.889721 6.6836
33 2 0.161234 0.11056 6.22541 6.30156 7.49646
81 3 1.60702 1.55951 4.69573 -1.57188 7.71018
82 5 4.6915 1.78006 4.67571 0.406359 14.6884
83 4 7.84625 1.38563 4.80774 -15.2374 14.3919
84 5 10.9441 1.57199 4.75749 -7.65202 15.0544
22 1 2.98681 3.29534 3.32711 3.884 7.07041
37 1 0.317803 2.99037 6.21299 2.32925 3.98828
38 1 2.94566 3.23072 6.18623 6.28423 11.4343
85 3 1.5676 4.73057 4.73652 -4.39773 10.1699
86 3 4.67343 4.89346 4.63432 2.30667 7.0823
87 5 7.60194 4.77952 4.686 3.51373 7.25365
88 4 11.0004 4.75544 4.62732 -3.40501 10.6473
25 2 0.046108 6.40345 3.33157 7.66287 9.58461
29 1 12.5233 9.39201 3.38169 4.15291 9.38212
89 3 1.60024 7.76409 4.76646 -0.286075 6.52751
26 1 2.90521 6.17449 3.39391 0.654968 2.8406
30 1 3.24771 9.51255 3.25333 4.25738 7.16902
31 2 5.90838 9.2459 3.09663 7.35329 13.0405
42 2 2.95782 6.32679 6.15352 16.3672 9.04691
90 3 4.52459 7.81535 4.58333 3.61878 6.20095
46 1 3.24707 9.43265 6.24486 -0.0262377 13.8028
47 2 6.15859 9.31395 6.29614 10.7955 8.37218
32 2 9.34853 9.32869 2.87109 4.536 9.5385
91 4 7.63593 8.03767 4.61804 -7.98193 10.6443
92 5 10.7781 7.80244 4.82221 -8.98731 11.7233
93 4 1.6953 10.9647 4.98779 -6.79273 7.41057
18 1 3.21659 12.393 3.42798 4.32447 8.3376
19 2 6.20828 12.465 3.44903 8.7412 7.52059
35 1 6.16475 12.3108 6.16991 1.09333 13.1135
94 3 4.86619 10.9332 4.68601 -0.0421028 19.4022
20 1 9.57895 0.0917997 3.17466 -1.45907 6.18566
95 3 7.73083 10.8808 4.63812 -3.59516 5.81365
36 2 9.3363 12.4303 6.28516 5.41741 12.9284
48 2 9.31905 9.29171 6.26992 8.13252 12.5882
96 4 10.8393 10.9431 4.7469 -9.98046 9.50372
97 4 1.70953 1.36502 7.91431 -6.54401 11.3029
98 5 4.79712 1.58517 7.91052 -2.7218 6.61393
34 2 3.2094 0.202203 6.21675 9.02162 7.04908
99 4 7.83369 1.40766 7.78244 -16.4269 21.0531
100 4 10.9825 1.56648 7.83928 -6.5525 6.81148
101 3 1.42995 4.7501 7.75171 6.80835 5.49452
39 1 6.40036 3.16832 6.26027 -2.17391 13.2001
102 4 4.80305 4.5971 7.63409 -11.5522 7.22357
40 1 9.33932 3.32544 6.32278 7.00034 2.8346
103 3 7.81299 4.91969 7.74451 -0.0978013 9.88482
55 1 6.55009 3.39783 9.15323 -1.10975 11.1143
104 3 10.8452 4.74836 7.95708 5.96197 3.54344
53 1 0.15046 3.16936 9.50988 4.97612 8.61737
56 1 9.12847 3.0663 9.18868 1.79069 11.4878
41 1 0.00193124 6.37253 6.43549 4.60614 11.6032
105 5 1.59988 7.88672 7.85809 -1.15048 8.13247
45 2 -0.0279055 9.31096 6.37913 10.5228 3.89864
43 2 6.09218 6.46098 6.16996 11.1482 9.1536
106 3 4.74408 7.83462 7.64595 1.40902 5.98986
107 5 7.81584 7.79983 7.80597 -11.7667 15.142
59 2 6.01228 6.31534 9.08828 8.4088 6.4644
44 2 9.48972 6.28503 6.5579 11.0059 7.20263
108 3 10.9524 7.78431 7.93303 2.07326 10.7228
57 2 12.3733 6.20481 9.30133 16.8005 5.72261
60 2 9.55861 6.33374 9.53458 10.8244 7.2082
109 3 1.51858 10.9102 8.01691 -4.29471 8.52019
110 5 4.55099 10.9254 7.77163 -7.56217 15.5589
51 2 6.19321 12.2761 9.31944 10.2967 9.81916
63 1 6.27552 9.43793 9.34077 2.91175 8.19361
111 5 7.78066 10.8363 7.749 -8.4219 13.6094
112 4 10.9899 11.0229 7.82544 -7.97845 7.64591
6 2 3.24869 3.04773 12.4821 11.249 4.18587
113 3 1.70977 1.48543 10.8748 4.38028 12.8616
114 4 4.64104 1.4015 10.9678 -10.6658 9.87712
7 2 6.30856 3.09801 -0.0979318 9.82346 4.0828
115 5 7.66893 1.40985 10.788 -6.58519 12.2256
8 2 9.3654 2.99013 12.4274 9.46244 6.46751
116 5 10.9501 1.56271 10.9819 -9.31422 15.4056
54 1 2.98121 3.21299 9.26433 3.1663 11.2961
10 2 3.1456 6.28718 0.0808997 10.5417 8.19141
58 1 3.11992 6.01654 9.06717 3.58294 4.33547
117 5 1.70276 4.79045 10.9156 -7.82516 15.9788
118 4 4.75784 4.72106 10.9598 -3.20819 8.62722
119 4 7.91264 4.68283 10.9304 -7.57025 11.3451
120 3 10.9123 4.78889 10.8331 1.3124 11.493
121 3 1.55538 7.85925 11.1132 6.0478 5.85134
13 2 0.116463 9.47979 12.3563 13.7208 7.38315
61 2 12.5569 9.48765 9.47972 15.7082 4.19457
15 2 6.01105 9.40989 0.0890012 9.67853 7.87651
122 4 4.57565 7.90831 10.8071 -1.76605 9.71023
123 5 7.75545 7.77818 10.9106 -8.19004 15.3696
9 2 12.3795 6.16431 12.3444 12.9684 4.93092
12 1 9.3214 6.38143 12.5628 4.94811 8.89704
124 3 10.9661 7.81956 10.9383 4.68024 8.76192
16 1 9.62487 9.14029 12.4144 2.14646 8.09134
64 1 9.52457 9.29635 9.50952 6.56618 4.44129
1 1 0.0711068 -0.170083 12.4132 2.06198 7.89383
2 1 3.07755 12.3829 12.4879 0.968419 9.22504
14 2 2.99561 9.36292 12.5683 11.9485 6.45154
49 1 0.238022 12.4121 9.79038 -1.22836 8.36637
50 2 3.18134 12.2088 9.62011 7.53671 11.2034
62 1 3.12797 9.59166 9.4365 -0.600156 12.3299
125 3 1.68545 10.8516 11.071 -6.68406 7.90583
3 2 6.29828 12.4845 12.3979 9.0482 6.08638
126 3 4.76823 10.955 10.9789 -1.82868 6.65434
127 5 7.89112 10.8185 11.0068 -3.71256 14.5014
4 2 9.34374 -0.0796234 12.3619 10.8818 5.072
52 2 9.35486 12.3946 9.51398 11.1612 6.14163
128 3 11.0375 10.9907 10.9047 -0.114857 13.813
