ITEM: TIMESTEP
1000
ITEM: NUMBER OF ATOMS
128
ITEM: BOX BOUNDS pp pp pp
0.0000000000000000e+00 1.2435466192390100e+01
0.0000000000000000e+00 1.2491851687665900e+01
0.0000000000000000e+00 1.2469849851863099e+01
ITEM: ATOMS id type x y z v_sa_hydro v_sa_von
65 5 1.55085 1.57679 1.59362 -0.549728 14.5008
66 4 4.68233 1.5803 1.55941 -7.25402 7.12864
67 5 7.89323 1.4139 1.49911 -6.84716 10.1227
68 5 11.0296 1.50639 1.40307 -8.73656 6.05868
69 5 1.44482 4.77535 1.4638 -1.13023 8.05411
70 4 4.63411 4.76888 1.58661 -4.58423 7.89425
71 4 7.68989 4.6749 1.54571 -11.029 12.8698
72 4 10.7375 4.50675 1.54244 -4.69065 6.55083
73 4 1.61269 7.8929 1.68736 -10.3957 9.67148
10 2 3.0945 6.27692 0.093609 9.90238 7.96572
14 2 2.9439 9.33404 0.0428697 11.1843 6.70539
11 1 6.14571 6.47926 0.120051 2.28178 7.14513
74 3 4.6452 7.98928 1.53212 -2.51451 4.44765
31 2 5.86868 9.21774 3.09284 6.51081 13.4816
27 1 6.23006 6.52156 2.91389 2.27551 12.5354
75 3 7.79277 7.98461 1.305 2.99407 13.3486
28 2 9.11745 6.29309 2.99676 10.8493 6.74922
32 2 9.32302 9.30002 2.86854 3.6721 10.0822
12 1 9.29578 6.37059 0.0373476 4.24826 9.19019
76 5 10.9294 7.7308 1.69052 -5.0155 8.61322
77 5 1.58048 10.9969 1.60342 -9.44893 10.4078
78 5 4.68856 10.96 1.48485 -11.9468 13.6079
15 2 5.97177 9.38073 0.101666 8.95074 8.23164
79 4 7.81899 10.9036 1.75063 -9.50118 10.0368
80 4 10.9016 10.8419 1.50629 -11.1209 10.8375
33 2 0.0978371 0.137669 6.2045 5.51412 7.52667
81 3 1.54958 1.57785 4.68319 -3.21877 6.63084
37 1 0.255051 3.00006 6.19216 1.61952 4.34002
82 5 4.64678 1.79707 4.66328 -0.99604 14.1407
34 2 3.15857 0.228758 6.19589 8.3759 7.26408
23 1 6.40844 2.93348 3.12007 -0.506004 7.17836
24 1 9.1572 2.88454 3.13438 1.20461 11.1853
83 4 7.81454 1.40502 4.79459 -16.9933 14.422
84 5 10.9251 1.59026 4.74461 -9.38352 14.8732
20 1 9.55438 0.119022 3.17045 -2.37112 6.38756
21 1 0.261802 3.12505 3.30799 0.0451161 6.90121
22 1 2.93506 3.30318 3.32205 3.28511 7.32613
38 1 2.89374 3.23895 6.16553 5.68076 11.704
85 3 1.51 4.72972 4.72376 -6.34447 9.56083
26 1 2.85313 6.16491 3.3885 -0.115691 2.91123
86 3 4.62864 4.89163 4.62211 1.13262 7.33613
87 5 7.56923 4.77838 4.67352 1.97139 8.26456
88 4 10.9817 4.75444 4.61515 -4.75035 11.6085
29 1 0.0753904 9.36296 3.37634 3.39468 9.50995
89 3 1.54278 7.7449 4.75354 -1.97592 7.45979
42 2 2.90595 6.31628 6.13301 15.6156 9.42279
90 3 4.47919 7.79584 4.5714 2.15307 5.48621
43 2 6.05324 6.44967 6.14936 10.3912 9.41682
91 4 7.60335 8.01682 4.60592 -9.48575 10.4256
25 2 12.4177 6.39248 3.32649 7.09109 9.81596
92 5 10.7585 7.78301 4.80898 -11.0866 13.0079
17 2 0.0237004 12.4237 3.24534 12.8922 6.02957
93 4 1.63823 10.9261 4.97366 -8.42188 7.45061
30 1 3.19703 9.48278 3.24869 3.57775 7.28259
46 1 3.1964 9.40336 6.22384 -0.857004 14.1582
18 1 3.16579 12.3458 3.42238 3.63799 8.41603
19 2 6.16982 12.4174 3.44331 8.04548 7.52829
35 1 6.1261 12.2641 6.14931 0.276017 13.318
94 3 4.8222 10.8948 4.67353 -1.75724 19.2706
95 3 7.69864 10.8428 4.6259 -5.07472 7.2992
96 4 10.82 10.9047 4.73408 -11.961 11.0875
97 4 1.65252 1.38454 7.88416 -8.11992 10.5358
98 5 4.75284 1.60335 7.88039 -4.12609 5.98023
99 4 7.80193 1.42692 7.75302 -18.3723 22.0618
56 1 9.10205 3.07553 9.15156 1.12049 11.9041
100 4 10.9637 1.58478 7.80954 -7.82012 6.70329
101 3 1.37178 4.74913 7.72245 5.30965 5.82463
54 1 2.92944 3.22133 9.22679 2.48215 11.7506
58 1 3.06872 6.00792 9.03072 2.89174 4.37544
102 4 4.75879 4.59706 7.60548 -13.2742 7.74726
39 1 6.36269 3.17693 6.23918 -3.00563 13.4078
40 1 9.31377 3.3331 6.30134 6.39859 2.88204
103 3 7.78114 4.9177 7.71529 -1.34225 10.2206
55 1 6.51303 3.40505 9.1163 -1.91407 11.4033
104 3 10.8258 4.74741 7.9267 4.62345 4.14651
57 2 12.3602 6.19505 9.26359 16.2874 5.69952
105 5 1.54242 7.86678 7.82825 -2.96561 8.52803
47 2 6.11992 9.28537 6.27484 9.93525 8.63486
106 3 4.69958 7.81499 7.61727 -0.038266 6.12196
59 2 5.97301 6.30491 9.05171 7.62521 6.64346
48 2 9.29342 9.26327 6.24877 7.48276 13.138
107 5 7.784 7.78042 7.77641 -13.8482 16.971
41 1 12.3733 6.36175 6.41343 3.91661 11.9943
45 2 12.3434 9.2824 6.35738 9.77532 3.9775
44 2 9.46479 6.27478 6.53518 10.3846 7.49571
108 3 10.9335 7.76499 7.90278 0.544018 10.6761
109 3 1.46078 10.8719 7.9862 -5.68922 7.11654
110 5 4.50569 10.8871 7.74226 -9.52494 15.9158
51 2 6.15469 12.2296 9.28161 9.49379 10.2017
36 2 9.31074 12.3829 6.26393 4.54327 13.2992
63 1 6.23733 9.4086 9.30282 2.03218 8.60518
111 5 7.74867 10.7985 7.71976 -10.3295 14.6722
112 4 10.9711 10.9839 7.79578 -9.72671 7.97327
113 3 1.65276 1.50422 10.8284 3.08565 12.0196
6 2 3.19802 3.05707 12.427 10.6019 4.19815
114 4 4.59611 1.4208 10.921 -12.2901 8.98289
7 2 6.27051 3.10704 12.3856 9.22764 4.16998
115 5 7.63649 1.42909 10.7421 -8.55302 12.6896
8 2 9.33995 2.99982 12.3725 8.82037 6.66144
116 5 10.9312 1.58103 10.935 -11.3424 16.5951
53 1 0.0870182 3.17797 9.471 4.28428 8.94838
117 5 1.64572 4.78925 10.869 -9.66434 15.954
118 4 4.7134 4.72027 10.913 -4.48294 7.16003
119 4 7.8812 4.68227 10.8838 -9.2419 11.8613
5 1 12.3766 3.25736 12.0556 -0.310376 13.2687
120 3 10.8932 4.78769 10.7869 -0.0769319 11.1128
9 2 12.3665 6.15479 12.29 12.5243 5.1636
121 3 1.49773 7.83948 11.0656 4.72285 5.25711
122 4 4.53045 7.88824 10.7611 -3.23694 9.38091
123 5 7.72336 7.7589 10.864 -9.95486 17.0926
60 2 9.53396 6.32319 9.49557 10.148 7.25605
124 3 10.9473 7.80003 10.8916 3.0713 8.76131
16 1 9.60049 9.11277 12.3596 1.45862 8.3353
64 1 9.49978 9.26788 9.47065 5.88682 4.77811
13 2 0.0528811 9.45021 12.3019 13.1541 7.67357
61 2 0.109115 9.45803 9.44101 15.0822 4.32579
1 1 0.00733795 12.3506 12.3585 1.1595 7.83504
2 1 3.02617 12.3357 12.4327 0.0435567 9.47115
49 1 0.174941 12.3647 9.74997 -2.16921 8.37797
62 1 3.07681 9.5614 9.39802 -1.61703 12.6286
125 3 1.62834 10.8137 11.0235 -8.79376 8.42017
50 2 3.1304 12.1627 9.58063 6.73429 11.6703
126 3 4.72383 10.9165 10.932 -3.47662 7.50817
3 2 6.26019 12.4367 12.3432 8.25301 6.05322
127 5 7.8596 10.7808 10.9597 -5.53156 15.6737
4 2 9.3182 12.4405 12.3074 10.2134 5.12679
52 2 9.32938 12.3474 9.47508 10.4393 6.18784
128 3 11.0189 10.952 10.8582 -1.64479 14.1535
ITEM: TIMESTEP
1038
ITEM: NUMBER OF ATOMS
128
ITEM: BOX BOUNDS pp pp pp
0.0000000000000000e+00 1.2435466192390100e+01
0.0000000000000000e+00 1.2491851687665900e+01
0.0000000000000000e+00 1.2469849851863099e+01
ITEM: ATOMS id type x y z v_sa_hydro v_sa_von
65 5 1.5899 1.57514 1.56361 -4.89174 12.0976
66 4 4.65828 1.48828 1.50871 -7.73811 7.32068
67 5 7.82383 1.32306 1.47788 -6.2673 4.26605
68 5 10.9638 1.53634 1.55344 -1.87868 7.33618
69 5 1.50622 4.6963 1.64929 -6.46792 5.67921
70 4 4.67694 4.54604 1.76585 -5.33242 5.03701
71 4 7.77252 4.70814 1.47553 -6.96224 13.1389
72 4 10.8623 4.71562 1.46208 -3.35593 7.59506
73 4 1.66565 7.81162 1.42171 -4.66375 11.3241
10 2 3.23593 6.06896 0.306272 3.8781 7.08738
14 2 2.94347 9.60303 12.3273 8.45398 9.84362
11 1 6.07056 6.49053 0.303661 -0.336822 5.75726
74 3 4.64618 7.88314 1.65927 -0.930731 9.70069
31 2 6.07484 9.34001 3.18752 15.4267 5.05953
27 1 6.15974 6.44082 3.04378 3.25795 9.84582
75 3 7.77337 7.85246 1.57064 2.43878 10.6161
28 2 9.25498 6.42821 2.92133 9.05251 3.42964
32 2 9.17024 9.33437 3.16024 9.69584 7.56653
12 1 9.50627 6.53869 12.3575 1.58087 10.9927
76 5 10.9418 7.91661 1.55256 -3.43772 6.29407
77 5 1.44286 10.9414 1.6311 0.699805 10.6704
78 5 4.53389 10.8906 1.58214 -4.50796 6.34657
15 2 5.93772 9.3491 12.4514 12.8454 10.8907
79 4 7.66001 10.7691 1.50975 -8.41532 7.94718
80 4 10.8151 10.9923 1.4925 -6.93002 6.02307
33 2 12.5687 0.130181 6.24317 8.95326 5.34312
81 3 1.57175 1.57086 4.80369 -4.04799 5.03114
37 1 0.118955 3.24627 6.21575 6.88445 6.65772
82 5 4.71111 1.66234 4.68812 -1.30512 11.4149
34 2 3.15056 0.174613 6.24591 10.291 7.89902
23 1 6.48566 2.91653 3.02104 -1.22682 5.62465
24 1 9.23228 2.97652 2.98665 2.76038 2.30432
83 4 7.7934 1.49756 4.7783 -10.8165 11.4825
84 5 10.8858 1.51254 4.71349 -4.07214 3.79285
20 1 9.1129 12.2974 3.30336 0.00539833 9.0654
21 1 0.160952 3.05352 3.36525 2.99156 7.18616
22 1 2.9135 3.17759 3.42422 2.65884 8.82418
38 1 2.97396 3.22944 6.16453 5.23482 8.69798
85 3 1.56755 4.78459 4.74278 -0.890198 5.7057
26 1 3.14733 6.26747 3.24512 8.30504 6.8124
86 3 4.67203 4.759 4.77312 2.08814 7.01308
87 5 7.73545 4.73266 4.63944 -1.64564 7.65939
88 4 10.8623 4.69276 4.63622 -5.10701 5.84361
29 1 0.283741 9.15314 3.30666 -0.0429576 2.78975
89 3 1.59009 7.6958 4.73108 -2.89561 6.98076
42 2 3.12722 6.22527 6.18086 17.3759 8.04722
90 3 4.70052 7.72649 4.70889 -2.71166 12.8828
43 2 6.15355 6.2569 6.2826 14.0031 8.59306
91 4 7.74257 7.79752 4.71518 -16.6536 7.12285
25 2 0.112336 6.3139 3.19909 12.0195 5.26225
92 5 10.8644 7.75866 4.68949 -10.9379 5.22996
17 2 0.223369 0.176214 3.33419 7.90076 4.48753
93 4 1.65266 10.8951 4.89077 -6.74585 4.99825
30 1 3.1316 9.19855 3.32017 5.28017 7.4243
46 1 3.25023 9.07008 6.06418 -1.17698 4.52144
18 1 3.09029 0.0861304 3.34984 4.07101 8.06747
19 2 6.1587 12.3327 3.26332 14.5766 4.79683
35 1 6.12555 12.2316 6.14477 2.91145 6.52876
94 3 4.68861 10.8742 4.64205 0.467112 13.9974
95 3 7.70231 10.7938 4.68575 0.0272997 7.55093
96 4 10.9434 10.8608 4.58325 -7.47241 9.20981
97 4 1.60722 1.6101 7.90624 -6.75316 5.06075
98 5 4.73367 1.51203 7.79219 -3.13884 5.62089
99 4 7.86886 1.47433 7.80862 -7.22727 12.9913
56 1 9.42092 3.41778 9.25241 4.15026 8.81874
100 4 10.9126 1.62597 7.75129 -7.66648 10.1875
101 3 1.51418 4.79035 7.77505 0.256611 6.94293
54 1 2.89393 3.36511 9.4495 0.790459 7.05227
58 1 3.06716 6.23424 9.14175 0.760878 5.40227
102 4 4.64237 4.64567 7.80718 -11.8915 9.13835
39 1 6.45151 3.33227 6.40673 1.162 8.06647
40 1 9.28437 3.442 6.4283 2.68879 3.73388
103 3 7.83587 4.87392 7.82753 -0.739683 4.74141
55 1 6.48253 3.29266 9.22878 1.23097 4.29574
104 3 10.9269 4.82053 7.81843 0.608652 8.06302
57 2 12.3979 6.35615 9.30014 17.1829 3.629
105 5 1.58733 7.88297 7.79161 -7.97596 6.59913
47 2 6.08908 9.30193 6.19338 14.6087 9.04129
106 3 4.67991 7.74531 7.75935 0.698836 6.56226
59 2 6.15858 6.29674 9.2676 12.1029 6.23949
48 2 9.35137 9.28668 6.26425 12.5678 10.0249
107 5 7.75407 7.80694 7.84293 -10.7729 12.5199
41 1 0.0153241 6.25892 6.30588 6.87004 4.90166
45 2 -0.0217594 9.17097 6.25963 9.46994 6.36898
44 2 9.3944 6.27271 6.44421 12.484 5.55657
108 3 10.9027 7.81214 7.79665 0.698054 7.379
109 3 1.51387 10.9521 7.85592 -2.21981 9.46433
110 5 4.47677 10.8315 7.70706 -5.43954 9.47812
51 2 6.01984 12.2203 9.35266 10.3991 4.81183
36 2 9.24316 12.1999 6.13697 8.00091 8.5525
63 1 5.91113 9.30187 9.40877 6.44134 6.62362
111 5 7.71051 10.8433 7.76184 -6.84332 10.0216
112 4 10.9434 10.9176 7.70889 -10.7128 6.16916
113 3 1.55005 1.61225 10.8908 1.68407 13.5449
6 2 2.86879 3.11541 12.3495 8.56688 7.88264
114 4 4.58251 1.53848 10.8177 -6.82019 4.75996
7 2 6.40095 2.86699 12.4637 6.22042 4.49134
115 5 7.7759 1.47759 10.8225 -6.25889 8.81239
8 2 9.35439 2.86878 12.4473 9.47052 4.68416
116 5 10.9094 1.62177 10.798 -5.28145 7.95028
53 1 12.4701 3.46383 9.38794 6.11866 6.26099
117 5 1.59255 4.9454 10.9861 -5.8087 11.6699
118 4 4.79779 4.62736 11.0665 -3.75716 9.11368
119 4 7.91044 4.71671 10.9468 -8.57765 10.6262
5 1 0.0478626 3.15545 12.2695 4.17458 6.99303
120 3 10.934 4.82973 10.8635 0.747768 9.77086
9 2 12.3161 6.41603 12.3123 10.354 8.25578
121 3 1.40717 7.92321 10.8647 -5.19513 5.54724
122 4 4.39733 7.71085 11.0056 -3.17207 15.2695
123 5 7.66389 7.78941 10.9561 -1.62188 13.7529
60 2 9.47779 6.34437 9.34774 16.171 4.02535
124 3 10.9459 7.84428 10.7974 -4.5496 7.91397
16 1 9.51795 9.32049 12.2208 3.30119 5.91127
64 1 9.48404 9.32288 9.36767 5.87705 6.67628
13 2 -0.0163172 9.42737 12.2275 13.212 7.96268
61 2 0.00704186 9.37007 9.35127 16.1111 7.36123
1 1 0.0543486 -0.00371094 12.2192 5.62015 6.69718
2 1 2.93794 12.4126 12.2813 4.61606 7.10846
49 1 0.0801145 12.3571 9.42808 3.2571 6.91837
62 1 2.997 9.45522 9.47704 1.87016 7.52511
125 3 1.49687 10.9069 10.8805 -5.53239 8.9916
50 2 3.03145 12.3042 9.37474 12.6926 8.47839
126 3 4.5648 10.9002 10.9132 -1.00676 7.34201
3 2 6.05617 12.3426 12.31 10.8912 5.50505
127 5 7.71012 10.8619 10.875 -7.58161 11.5371
4 2 9.46614 12.4355 12.193 10.0176 8.02777
52 2 9.40532 12.2753 9.37253 9.33532 5.29697
128 3 10.9023 10.9188 10.839 -1.83937 8.50634
