ITEM: TIMESTEP
1000
ITEM: NUMBER OF ATOMS
128
ITEM: BOX BOUNDS pp pp pp
0.0000000000000000e+00 1.2453833451315500e+01
0.0000000000000000e+00 1.2446985030242001e+01
0.0000000000000000e+00 1.2488489770550400e+01
ITEM: ATOMS id type x y z v_sa_hydro v_sa_von
65 4 1.49469 1.51435 1.57001 -11.7615 8.68027
1 2 0.0281554 0.0137445 0.0175742 13.2025 10.4622
66 3 4.6287 1.54543 1.53602 3.35504 12.4367
23 2 6.22063 3.08695 2.83261 8.97371 9.43981
19 1 6.15333 0.0149043 2.81108 3.20694 10.8053
7 1 6.35024 2.84855 0.0665055 1.3605 7.60614
67 4 7.89079 1.57014 1.66128 -20.6653 12.2548
3 1 6.24701 0.043036 0.0946115 4.03948 10.7542
21 2 12.0582 2.67594 3.10338 6.82847 8.66742
68 3 10.8605 1.40365 1.51324 -5.07016 16.4879
5 2 12.3365 3.06498 0.104337 7.75 6.49352
8 1 9.53192 3.03215 0.0040906 3.60826 6.97403
69 5 1.55179 4.59936 1.61822 -5.94258 18.5776
6 2 3.17528 3.20777 0.309342 4.65969 5.86634
70 5 4.72782 4.76977 1.47235 -5.33071 11.1546
71 3 7.84633 4.78473 1.52132 3.91595 10.4488
72 5 10.9812 4.67185 1.56818 -12.6158 14.23
73 5 1.52743 7.86293 1.64615 -8.84804 14.0008
74 3 4.82341 7.77884 1.43328 2.61606 9.20364
15 2 6.20163 9.21475 0.0898085 11.689 7.94881
11 2 6.55853 6.38853 0.0228313 8.60542 9.44995
27 2 6.56201 6.3413 2.77473 8.60983 8.17756
75 3 7.89385 7.89757 1.50184 -5.5903 11.1756
16 2 9.26267 9.26736 0.0767414 14.6987 4.65964
12 2 9.44598 6.34854 0.0068962 12.5452 7.70409
25 1 12.3294 6.40376 2.92615 1.67615 10.2961
9 2 12.2798 6.40458 0.0667339 8.90688 2.34514
28 1 9.43852 6.4143 2.86029 1.06825 13.0556
76 3 10.8363 7.70673 1.45497 -8.27884 6.01173
77 3 1.51671 10.8996 1.51413 0.443869 17.1013
30 1 3.40561 9.40805 2.80988 0.0438257 7.6784
2 1 3.20064 12.2083 0.133729 -0.591008 9.21498
18 2 3.19854 12.358 2.76545 6.41335 10.169
78 3 4.69445 10.7913 1.44246 -2.29877 18.9835
31 2 6.17346 9.42935 2.89888 17.5912 7.16614
79 3 7.82189 10.8461 1.52286 -5.52208 9.20838
20 2 9.27784 12.2579 2.95236 11.4628 8.548
32 2 9.35201 9.53949 2.95008 14.6591 8.81478
4 2 9.40274 12.2874 0.123779 11.6585 9.31435
17 1 12.1908 12.2946 2.94025 5.8163 8.32297
29 1 12.3562 9.39974 2.82705 0.0255327 10.4035
80 3 10.7747 10.7561 1.46755 -2.34194 10.2568
81 5 1.58031 1.48043 4.55704 -3.2033 13.9534
82 4 4.6567 1.65364 4.54246 -11.4757 13.8055
83 5 7.84641 1.55456 4.67275 -6.89718 9.45462
24 2 9.37794 2.95672 3.1987 6.50406 10.9788
37 1 12.0143 2.78496 5.85105 -5.34928 10.0862
84 3 10.7825 1.33085 4.51938 -5.54384 10.7736
26 1 2.78158 6.04138 3.19007 2.3856 10.0206
85 4 1.36919 4.54729 4.92963 2.03971 8.81198
22 2 3.28963 3.43507 3.23883 6.18228 14.8581
86 5 4.82307 4.7042 4.66622 -3.90712 18.303
38 1 3.20742 3.12273 6.23644 3.21126 9.95308
87 4 7.74892 4.68233 4.58689 -8.52114 18.9515
88 4 10.804 4.72536 4.70423 -9.57087 20.5688
89 3 1.61868 7.76164 4.65746 4.13386 4.31012
90 5 4.61993 7.92636 4.65585 6.03542 4.83362
91 4 7.82416 7.81843 4.56038 -4.58584 11.5876
92 4 10.9682 7.91489 4.8301 -0.427839 9.22756
93 4 1.40625 10.7093 4.51061 -0.798757 11.0254
94 4 4.54469 11.1231 4.67486 -5.35235 11.6825
47 1 6.37595 9.5701 5.91671 1.06367 4.1235
95 3 7.67569 11.0169 4.36841 2.1597 9.30687
48 1 9.18396 9.6472 6.0177 -1.70645 15.3884
33 1 12.4036 12.4237 5.80511 1.55685 3.72699
36 1 9.38908 12.2365 5.92304 -0.326541 9.32067
96 3 10.807 10.7413 4.61246 -5.96307 19.4178
97 4 1.3319 1.66543 7.64614 -7.94276 18.7213
54 2 3.03354 2.99127 9.00354 4.03394 8.56288
50 1 2.7548 0.149804 9.20352 2.19839 5.87543
98 5 4.57233 1.48778 7.76911 -10.1371 8.52203
99 4 7.86265 1.45163 7.77211 -12.5426 4.95608
55 2 6.33766 2.98493 9.34545 9.91612 7.65072
100 5 10.8456 1.28795 7.7833 -4.23009 23.8458
101 3 1.59313 4.69698 7.96558 -3.85975 4.68301
39 1 6.21586 3.19062 6.42336 3.16446 5.75707
102 5 4.72496 4.74491 7.99124 -5.63678 12.3203
43 1 6.19062 6.10413 6.38112 0.352581 9.60902
103 5 7.75362 4.66456 8.00061 -7.50598 6.37866
44 1 9.32197 6.13182 6.54813 -0.700264 9.52847
40 1 9.41358 3.3559 6.24815 0.924433 15.4875
104 4 11.168 4.486 7.89866 0.37293 12.6556
41 1 0.363045 6.35214 6.51207 -3.23649 12.348
105 3 1.68319 7.72512 7.82775 -9.96266 10.8216
45 2 0.161312 9.18419 6.44447 7.12288 3.68918
42 2 3.0586 6.46493 6.3294 13.1497 8.24571
61 1 0.269013 9.11349 9.24782 1.58262 7.21499
106 5 4.70583 7.87088 7.76997 -5.7462 10.9271
107 4 7.80937 7.83562 7.70706 -8.8944 10.0908
108 5 10.9491 7.68582 7.9006 -6.33467 13.5936
46 1 2.97543 9.452 6.46893 3.17285 5.93918
34 2 3.05613 12.4032 6.30902 9.91806 10.9667
109 3 1.40159 10.9021 7.85423 6.337 13.9394
110 4 4.57975 10.8826 7.97691 -7.41027 12.7978
35 2 6.26342 12.4297 6.35964 7.54628 8.86283
111 5 7.75284 10.8557 7.71662 -5.86712 19.0891
112 4 10.9697 10.7676 7.70019 -5.3432 13.6105
49 1 0.136223 0.0801812 9.55445 1.52628 6.36224
113 3 1.4578 1.65623 11.0307 0.253355 8.61319
114 4 4.53742 1.62852 10.8995 -2.72469 8.53653
51 1 6.33988 0.276066 9.59565 -2.04865 8.48063
115 3 7.79725 1.58085 11.0574 2.45955 13.5859
53 1 12.3463 2.83248 9.47006 -4.23758 12.0025
56 1 9.52629 2.80412 9.6706 4.88824 5.7742
116 3 11.1037 1.53116 11.0836 -3.76166 12.4711
117 4 1.51269 4.60433 10.9171 -9.1263 11.0601
118 4 4.61767 4.69038 10.9604 -10.5126 9.54905
119 4 7.77806 4.6825 11.042 -11.5044 6.90785
120 5 10.9716 4.65091 11.0198 -12.1878 5.33935
14 2 3.05396 9.08121 12.4836 10.9433 7.63492
57 2 0.343734 6.34133 9.48493 3.69795 15.2537
58 1 2.76143 6.42527 9.47865 -6.15506 12.8045
121 3 1.5693 7.78317 11.0765 -2.1235 9.18318
62 2 3.01195 9.26402 9.44667 12.3973 6.60294
10 2 3.15794 6.37612 12.4852 9.22452 3.53122
122 5 4.68694 7.78353 10.9809 -14.2688 11.7611
59 2 6.31491 6.26759 9.44411 8.86676 7.79882
123 3 7.81479 7.74973 10.9353 -0.571057 8.33259
63 2 6.24775 9.26305 9.64721 6.53707 4.59755
60 1 9.34204 6.35079 9.61301 0.281802 9.88141
124 5 10.9158 7.78623 10.9277 -16.3616 12.907
13 2 0.00362002 9.38785 12.4058 13.8963 4.05543
125 5 1.57165 10.9233 11.0374 -4.58712 6.07605
126 4 4.80984 10.9258 10.9921 -17.4671 11.2934
52 2 9.13758 12.3795 9.53518 8.71198 14.1813
64 1 9.13859 9.47787 9.57657 1.22139 6.08168
127 5 7.73859 10.9913 11.0219 -20.9856 20.9627
128 5 10.8394 10.9434 10.9589 -7.30399 6.89299
ITEM: TIMESTEP
1033
ITEM: NUMBER OF ATOMS
128
ITEM: BOX BOUNDS pp pp pp
0.0000000000000000e+00 1.2453833451315500e+01
0.0000000000000000e+00 1.2446985030242001e+01
0.0000000000000000e+00 1.2488489770550400e+01
ITEM: ATOMS id type x y z v_sa_hydro v_sa_von
65 4 1.54321 1.48177 1.47407 -13.782 3.19004
1 2 12.3337 12.4053 0.0209902 13.2303 8.54596
66 3 4.59681 1.54944 1.63808 1.3457 8.39188
23 2 6.14392 3.14256 3.01134 10.9644 4.23415
19 1 6.22248 12.3822 2.94771 5.79414 2.8867
7 1 5.9727 2.89502 0.039573 -0.602905 7.97858
67 4 7.79395 1.64138 1.47585 -8.90931 12.3446
3 1 6.11056 -0.0222932 0.198405 5.7339 5.81692
21 2 12.3404 2.97325 3.00144 13.4971 4.43675
68 3 10.8985 1.48868 1.51566 -4.34366 10.3527
5 2 12.3685 2.95956 12.4599 13.9523 4.25815
8 1 9.5451 2.87146 12.3871 -0.720041 6.54267
69 5 1.49399 4.66714 1.55092 -2.51829 4.19219
6 2 3.07747 3.09963 0.0501578 11.1558 7.10992
70 5 4.69588 4.72137 1.51113 -8.68948 12.1223
71 3 7.7496 4.82316 1.60635 2.66764 11.4169
72 5 10.7864 4.63857 1.4645 -3.73756 13.1459
73 5 1.53719 7.87733 1.63821 -7.43517 7.60225
74 3 4.76269 7.82836 1.55 -1.66244 8.68
15 2 6.2747 9.33105 0.134506 15.1043 5.52928
11 2 6.34411 6.43826 0.126939 10.3705 5.10161
27 2 6.25181 6.34547 2.94716 12.3944 8.19224
75 3 7.78987 7.89575 1.55099 -5.03685 7.19707
16 2 9.28792 9.36716 0.0624957 16.1047 6.55145
12 2 9.28593 6.4463 0.0568446 12.8965 7.27562
25 1 12.2287 6.36136 2.83355 0.570162 6.77366
9 2 12.449 6.35988 0.0185831 13.686 4.87941
28 1 9.43761 6.48832 2.83808 0.814468 11.0983
76 3 10.8389 7.91126 1.44101 -3.24944 10.1822
77 3 1.54694 10.8773 1.5545 1.29363 14.2244
30 1 3.33302 9.27052 3.02425 2.71758 8.1479
2 1 3.25917 12.2663 0.279738 -0.0434458 7.18234
18 2 3.12835 12.2947 3.02298 12.2185 8.35721
78 3 4.71819 10.8087 1.58916 -0.462548 10.6211
31 2 6.30561 9.35601 3.03122 17.8398 3.29574
79 3 7.81287 10.8869 1.55454 -1.29176 8.51593
20 2 9.36738 12.3985 2.98689 17.2895 3.52016
32 2 9.32608 9.46355 2.97227 17.9458 3.13963
4 2 9.39481 12.4397 0.0272179 13.8888 6.24091
17 1 12.3071 12.3586 2.99466 7.20589 5.70971
29 1 12.2167 9.49764 2.81474 -0.787268 7.48377
80 3 10.8096 10.9311 1.44472 -3.31741 10.9051
81 5 1.57138 1.47685 4.54487 -4.80709 8.28781
82 4 4.65737 1.55216 4.65727 -9.16824 6.16186
83 5 7.76654 1.53741 4.569 -9.63138 4.53052
24 2 9.45544 2.93132 3.03992 9.03865 4.70082
37 1 12.2389 2.89743 5.92609 0.884942 5.93604
84 3 10.8404 1.51293 4.47987 -1.94311 3.79305
26 1 3.26711 6.38208 3.04211 4.18404 5.07617
85 4 1.50159 4.68238 4.68852 -1.67342 6.28492
22 2 3.13946 3.13839 3.02559 11.4637 3.1202
86 5 4.64926 4.72309 4.64978 -6.43527 7.45812
38 1 3.13991 3.25832 6.30022 2.85535 3.474
87 4 7.78008 4.63598 4.5728 -6.77369 9.44261
88 4 10.8787 4.77332 4.58848 -5.48826 11.0421
89 3 1.69065 7.69837 4.76606 3.26965 9.91957
90 5 4.77339 7.81113 4.73663 -2.1206 8.58982
91 4 7.91793 7.7481 4.60425 -6.60208 9.23057
92 4 11.1139 7.96009 4.68191 -0.230483 8.07299
93 4 1.41892 10.6822 4.62539 0.00354337 12.7788
94 4 4.6541 10.9202 4.6892 -9.8948 9.4529
47 1 6.49672 9.52745 6.0398 0.598621 5.84265
95 3 7.80239 10.9358 4.4844 -1.47433 9.51278
48 1 9.24672 9.60086 5.97797 0.583628 4.37214
33 1 12.2842 0.0551088 5.92191 3.81402 6.47204
36 1 9.3783 12.3866 5.93144 5.01706 7.05887
96 3 10.8136 10.9113 4.49711 -4.41992 15.6612
97 4 1.39705 1.62023 7.69942 -6.06463 9.42326
54 2 3.00426 3.02558 9.30023 11.5142 4.18516
50 1 2.82875 0.0190647 9.18703 1.77201 8.40809
98 5 4.61429 1.49292 7.76488 -3.5834 8.88466
99 4 7.78765 1.54917 7.75106 -12.8414 8.71041
55 2 6.1959 2.995 9.43136 12.7798 5.72163
100 5 10.8065 1.4326 7.79352 -5.36738 16.4532
101 3 1.59737 4.70771 7.85542 2.10731 5.80949
39 1 6.16497 3.23294 6.31191 3.62286 3.28693
102 5 4.64083 4.67226 7.92263 -8.29214 7.73154
43 1 6.27669 6.01382 6.39507 3.04547 6.42287
103 5 7.8632 4.58914 8.00201 -1.64444 10.1571
44 1 9.31261 6.0285 6.42278 0.526483 3.62541
40 1 9.46515 3.03515 6.05308 3.94762 8.84428
104 4 11.0946 4.54602 7.835 -0.326492 6.40739
41 1 0.266429 6.3839 6.45975 0.460386 5.59681
105 3 1.63301 7.78799 7.90734 -6.37591 7.45128
45 2 0.247475 9.15225 6.47722 6.06534 3.10219
42 2 3.11418 6.28425 6.35234 15.1303 3.97987
61 1 0.226081 9.28006 9.3943 4.18157 6.87295
106 5 4.71655 7.8056 7.89655 -6.57721 3.55781
107 4 7.78234 7.81799 7.80106 -9.55017 7.86777
108 5 10.9269 7.73307 7.83951 -2.28949 5.5414
46 1 2.99014 9.25896 6.3968 2.68111 8.4892
34 2 2.8302 12.3034 6.25666 9.87539 5.9196
109 3 1.53339 10.8533 7.8022 1.81948 11.2018
110 4 4.69525 10.8753 7.81152 -5.40075 8.743
35 2 6.44694 12.361 6.14157 8.96466 8.29796
111 5 7.8764 10.9248 7.83241 -4.1048 14.6202
112 4 10.9859 10.8157 7.68958 -2.96413 12.6162
49 1 0.0554175 0.0333422 9.48947 4.084 8.25029
113 3 1.5257 1.55086 10.9639 -0.150835 6.19059
114 4 4.52634 1.46082 10.9356 -6.95147 7.09626
51 1 6.3595 0.0856749 9.39117 0.403015 6.0319
115 3 7.76373 1.52151 10.9419 1.2103 11.1358
53 1 12.3778 2.83712 9.60919 1.2592 7.09814
56 1 9.40489 2.8822 9.64246 2.26853 6.97689
116 3 10.9149 1.43014 10.9998 -5.37919 9.73101
117 4 1.5185 4.6526 10.925 -7.2437 7.03075
118 4 4.65373 4.67643 10.954 -12.153 9.48718
119 4 7.77146 4.59984 11.1692 -2.77914 7.83191
120 5 10.8946 4.70651 10.9123 -5.6885 7.42865
14 2 3.14042 9.32871 0.123391 14.6565 8.12964
57 2 0.178688 6.39538 9.39867 11.4889 9.42423
58 1 2.99177 6.36942 9.41331 2.39305 6.93787
121 3 1.5821 7.82904 11.0457 3.1245 6.20769
62 2 3.0314 9.28506 9.40964 13.29 7.2995
10 2 3.02919 6.34399 0.0827359 12.7226 4.83284
122 5 4.67555 7.77337 11.0321 -11.7362 8.46588
59 2 6.3281 6.26456 9.50074 12.6597 6.78595
123 3 7.75554 7.8017 11.0701 -0.761178 6.08206
63 2 6.33601 9.24681 9.56624 9.06379 4.96581
60 1 9.1939 6.37075 9.54823 3.50457 7.80432
124 5 10.9494 7.80898 10.9709 -13.236 11.7412
13 2 12.4626 9.40838 0.0314387 14.9347 7.3408
125 5 1.5937 10.9258 11.017 -6.02483 9.78996
126 4 4.67169 10.8249 10.9285 -13.3657 8.92578
52 2 9.30835 0.0701764 9.5957 10.2998 5.7928
64 1 9.17935 9.24372 9.58222 1.22056 5.64414
127 5 7.7662 10.9341 11.0533 -12.874 7.02509
128 5 10.8923 10.8824 10.9117 -11.8155 9.96155
