/home/winniebird/sfarrelly2024/test/test_projects/test_project/project/data/input/HEA_II.lmp (written by ASE) 

128 	 atoms 
5  atom types
0.0                  12.512  xlo xhi
0.0                  12.512  ylo yhi
0.0                  12.512  zlo zhi


Atoms 

     1   2                       0                       0                       0
     2   1      3.1280000000000001                       0                       0
     3   1      6.2560000000000002                       0                       0
     4   2      9.3840000000000003                       0                       0
     5   2                       0      3.1280000000000001                       0
     6   2      3.1280000000000001      3.1280000000000001                       0
     7   1      6.2560000000000002      3.1280000000000001                       0
     8   1      9.3840000000000003      3.1280000000000001                       0
     9   2                       0      6.2560000000000002                       0
    10   2      3.1280000000000001      6.2560000000000002                       0
    11   2      6.2560000000000002      6.2560000000000002                       0
    12   2      9.3840000000000003      6.2560000000000002                       0
    13   2                       0      9.3840000000000003                       0
    14   2      3.1280000000000001      9.3840000000000003                       0
    15   2      6.2560000000000002      9.3840000000000003                       0
    16   2      9.3840000000000003      9.3840000000000003                       0
    17   1                       0                       0      3.1280000000000001
    18   2      3.1280000000000001                       0      3.1280000000000001
    19   1      6.2560000000000002                       0      3.1280000000000001
    20   2      9.3840000000000003                       0      3.1280000000000001
    21   2                       0      3.1280000000000001      3.1280000000000001
    22   2      3.1280000000000001      3.1280000000000001      3.1280000000000001
    23   2      6.2560000000000002      3.1280000000000001      3.1280000000000001
    24   2      9.3840000000000003      3.1280000000000001      3.1280000000000001
    25   1                       0      6.2560000000000002      3.1280000000000001
    26   1      3.1280000000000001      6.2560000000000002      3.1280000000000001
    27   2      6.2560000000000002      6.2560000000000002      3.1280000000000001
    28   1      9.3840000000000003      6.2560000000000002      3.1280000000000001
    29   1                       0      9.3840000000000003      3.1280000000000001
    30   1      3.1280000000000001      9.3840000000000003      3.1280000000000001
    31   2      6.2560000000000002      9.3840000000000003      3.1280000000000001
    32   2      9.3840000000000003      9.3840000000000003      3.1280000000000001
    33   1                       0                       0      6.2560000000000002
    34   2      3.1280000000000001                       0      6.2560000000000002
    35   2      6.2560000000000002                       0      6.2560000000000002
    36   1      9.3840000000000003                       0      6.2560000000000002
    37   1                       0      3.1280000000000001      6.2560000000000002
    38   1      3.1280000000000001      3.1280000000000001      6.2560000000000002
    39   1      6.2560000000000002      3.1280000000000001      6.2560000000000002
    40   1      9.3840000000000003      3.1280000000000001      6.2560000000000002
    41   1                       0      6.2560000000000002      6.2560000000000002
    42   2      3.1280000000000001      6.2560000000000002      6.2560000000000002
    43   1      6.2560000000000002      6.2560000000000002      6.2560000000000002
    44   1      9.3840000000000003      6.2560000000000002      6.2560000000000002
    45   2                       0      9.3840000000000003      6.2560000000000002
    46   1      3.1280000000000001      9.3840000000000003      6.2560000000000002
    47   1      6.2560000000000002      9.3840000000000003      6.2560000000000002
    48   1      9.3840000000000003      9.3840000000000003      6.2560000000000002
    49   1                       0                       0      9.3840000000000003
    50   1      3.1280000000000001                       0      9.3840000000000003
    51   1      6.2560000000000002                       0      9.3840000000000003
    52   2      9.3840000000000003                       0      9.3840000000000003
    53   1                       0      3.1280000000000001      9.3840000000000003
    54   2      3.1280000000000001      3.1280000000000001      9.3840000000000003
    55   2      6.2560000000000002      3.1280000000000001      9.3840000000000003
    56   1      9.3840000000000003      3.1280000000000001      9.3840000000000003
    57   2                       0      6.2560000000000002      9.3840000000000003
    58   1      3.1280000000000001      6.2560000000000002      9.3840000000000003
    59   2      6.2560000000000002      6.2560000000000002      9.3840000000000003
    60   1      9.3840000000000003      6.2560000000000002      9.3840000000000003
    61   1                       0      9.3840000000000003      9.3840000000000003
    62   2      3.1280000000000001      9.3840000000000003      9.3840000000000003
    63   2      6.2560000000000002      9.3840000000000003      9.3840000000000003
    64   1      9.3840000000000003      9.3840000000000003      9.3840000000000003
    65   4      1.5640000000000001      1.5640000000000001      1.5640000000000001
    66   3      4.6920000000000002      1.5640000000000001      1.5640000000000001
    67   4      7.8200000000000003      1.5640000000000001      1.5640000000000001
    68   3                  10.948      1.5640000000000001      1.5640000000000001
    69   5      1.5640000000000001      4.6920000000000002      1.5640000000000001
    70   5      4.6920000000000002      4.6920000000000002      1.5640000000000001
    71   3      7.8200000000000003      4.6920000000000002      1.5640000000000001
    72   5                  10.948      4.6920000000000002      1.5640000000000001
    73   5      1.5640000000000001      7.8200000000000003      1.5640000000000001
    74   3      4.6920000000000002      7.8200000000000003      1.5640000000000001
    75   3      7.8200000000000003      7.8200000000000003      1.5640000000000001
    76   3                  10.948      7.8200000000000003      1.5640000000000001
    77   3      1.5640000000000001                  10.948      1.5640000000000001
    78   3      4.6920000000000002                  10.948      1.5640000000000001
    79   3      7.8200000000000003                  10.948      1.5640000000000001
    80   3                  10.948                  10.948      1.5640000000000001
    81   5      1.5640000000000001      1.5640000000000001      4.6920000000000002
    82   4      4.6920000000000002      1.5640000000000001      4.6920000000000002
    83   5      7.8200000000000003      1.5640000000000001      4.6920000000000002
    84   3                  10.948      1.5640000000000001      4.6920000000000002
    85   4      1.5640000000000001      4.6920000000000002      4.6920000000000002
    86   5      4.6920000000000002      4.6920000000000002      4.6920000000000002
    87   4      7.8200000000000003      4.6920000000000002      4.6920000000000002
    88   4                  10.948      4.6920000000000002      4.6920000000000002
    89   3      1.5640000000000001      7.8200000000000003      4.6920000000000002
    90   5      4.6920000000000002      7.8200000000000003      4.6920000000000002
    91   4      7.8200000000000003      7.8200000000000003      4.6920000000000002
    92   4                  10.948      7.8200000000000003      4.6920000000000002
    93   4      1.5640000000000001                  10.948      4.6920000000000002
    94   4      4.6920000000000002                  10.948      4.6920000000000002
    95   3      7.8200000000000003                  10.948      4.6920000000000002
    96   3                  10.948                  10.948      4.6920000000000002
    97   4      1.5640000000000001      1.5640000000000001      7.8200000000000003
    98   5      4.6920000000000002      1.5640000000000001      7.8200000000000003
    99   4      7.8200000000000003      1.5640000000000001      7.8200000000000003
   100   5                  10.948      1.5640000000000001      7.8200000000000003
   101   3      1.5640000000000001      4.6920000000000002      7.8200000000000003
   102   5      4.6920000000000002      4.6920000000000002      7.8200000000000003
   103   5      7.8200000000000003      4.6920000000000002      7.8200000000000003
   104   4                  10.948      4.6920000000000002      7.8200000000000003
   105   3      1.5640000000000001      7.8200000000000003      7.8200000000000003
   106   5      4.6920000000000002      7.8200000000000003      7.8200000000000003
   107   4      7.8200000000000003      7.8200000000000003      7.8200000000000003
   108   5                  10.948      7.8200000000000003      7.8200000000000003
   109   3      1.5640000000000001                  10.948      7.8200000000000003
   110   4      4.6920000000000002                  10.948      7.8200000000000003
   111   5      7.8200000000000003                  10.948      7.8200000000000003
   112   4                  10.948                  10.948      7.8200000000000003
   113   3      1.5640000000000001      1.5640000000000001                  10.948
   114   4      4.6920000000000002      1.5640000000000001                  10.948
   115   3      7.8200000000000003      1.5640000000000001                  10.948
   116   3                  10.948      1.5640000000000001                  10.948
   117   4      1.5640000000000001      4.6920000000000002                  10.948
   118   4      4.6920000000000002      4.6920000000000002                  10.948
   119   4      7.8200000000000003      4.6920000000000002                  10.948
   120   5                  10.948      4.6920000000000002                  10.948
   121   3      1.5640000000000001      7.8200000000000003                  10.948
   122   5      4.6920000000000002      7.8200000000000003                  10.948
   123   3      7.8200000000000003      7.8200000000000003                  10.948
   124   5                  10.948      7.8200000000000003                  10.948
   125   5      1.5640000000000001                  10.948                  10.948
   126   4      4.6920000000000002                  10.948                  10.948
   127   5      7.8200000000000003                  10.948                  10.948
   128   5                  10.948                  10.948                  10.948
