ITEM: TIMESTEP
0
ITEM: NUMBER OF ATOMS
128
ITEM: BOX BOUNDS pp pp pp
0.0000000000000000e+00 1.2414834670771800e+01
0.0000000000000000e+00 1.2468705281356399e+01
0.0000000000000000e+00 1.2503477004500100e+01
ITEM: ATOMS id type x y z
65 5 1.56138 1.44124 1.57533
66 4 4.78176 1.51584 1.36648
67 4 7.71283 1.4061 1.92394
8 2 9.01505 2.79034 0.299421
68 5 10.8432 1.38356 1.65731
69 4 1.2093 4.80812 1.70478
70 4 4.49799 4.76436 1.50128
11 2 6.21638 6.19187 0.271133
71 4 7.88279 4.7767 1.80406
7 1 6.38457 3.30512 0.303928
72 3 10.7046 4.27866 1.26397
73 3 1.50324 7.77361 1.23707
29 1 0.192908 9.18402 3.10997
74 5 4.5354 7.92056 1.65143
75 4 7.8067 7.74877 1.56923
76 4 10.8404 7.38835 1.66187
77 5 1.51162 10.846 1.52692
15 2 5.98016 9.42179 0.328736
78 3 4.56805 10.8238 1.57565
18 1 3.14352 12.3072 3.02675
3 2 6.36328 12.0869 0.374738
79 3 7.58953 10.7061 1.52667
4 2 9.25606 12.3863 0.197157
80 5 10.6879 10.6409 1.59154
21 2 0.110273 2.95286 3.39279
22 1 3.00528 3.07606 3.14437
37 1 0.0691675 2.78798 6.06944
81 3 1.61236 1.42341 4.72336
33 1 0.209414 0.0311776 6.1415
82 5 4.72215 1.49039 4.52633
83 4 7.67717 1.45679 5.17656
24 2 9.3536 2.78282 3.35257
84 3 10.8373 1.43177 4.81162
40 1 9.34306 3.1139 6.02
85 4 1.41211 4.71139 4.87984
86 5 4.59098 4.7297 4.83022
23 1 6.1589 3.36135 3.31493
87 3 7.80246 4.70304 4.70469
88 4 10.8462 4.77966 4.23174
26 2 3.04406 6.31786 3.29133
25 1 0.431952 6.67702 3.36638
89 3 1.80923 7.89643 4.67985
41 1 0.0650473 6.70202 5.88598
27 1 6.01874 6.29255 3.18762
90 3 4.69195 7.80799 4.68196
28 2 9.03958 6.50356 3.55002
32 2 9.22001 9.2916 3.39217
91 3 7.67296 7.93415 4.77188
44 2 8.98159 6.41818 6.18804
92 3 10.8819 7.83999 4.65695
30 1 3.06049 9.3882 3.13506
45 1 0.244002 9.36776 6.04172
93 5 1.60441 11.0582 4.64868
31 2 6.00457 9.46278 3.21759
46 2 3.24615 9.37772 6.2299
19 2 5.90704 12.1868 3.16457
35 2 5.86964 12.1867 5.91909
47 1 5.93408 9.39388 6.21767
94 3 4.59151 10.7964 4.61697
20 1 9.2986 12.4592 3.39925
95 5 7.71898 10.8525 4.56427
17 2 12.2674 12.346 3.24253
48 1 9.38646 9.36122 6.23126
96 5 10.9413 10.8103 4.68765
36 1 9.51849 12.3905 6.23797
38 2 3.07105 3.04264 6.27953
97 3 1.63327 1.73601 7.80962
50 2 3.14039 0.0499909 9.17756
54 1 3.15124 3.05075 9.21737
98 4 4.83298 1.48012 7.66383
99 5 7.85781 1.92446 8.20423
100 5 10.9511 1.55118 7.87334
101 3 1.65659 4.68978 7.79067
53 2 0.0622752 3.39318 8.95523
102 3 4.66786 4.67895 7.64907
39 2 6.15849 3.36403 6.27617
59 1 5.93406 6.21751 9.08764
55 2 5.89362 3.20091 9.26435
103 4 7.77291 4.89372 7.83784
104 4 11.2009 4.8985 7.37227
56 1 9.78705 3.54161 8.96582
105 5 1.64119 7.96999 7.92739
42 1 3.06773 6.2431 6.36357
43 1 6.05798 6.37576 6.38977
106 3 4.59379 7.94245 7.73822
58 1 3.1107 6.28027 9.35133
107 5 7.74297 7.93965 7.91097
108 5 10.9578 7.84832 7.7596
60 2 9.68185 6.36521 9.32103
109 5 1.61823 11.0309 7.7916
34 2 3.15664 12.4102 6.32978
62 2 3.24949 9.50793 9.2517
110 3 4.57276 10.9621 7.75198
63 1 6.03138 9.55136 9.21285
111 4 7.62635 11.1002 7.70164
52 1 9.21092 12.3121 9.35863
112 5 10.947 10.8762 7.86249
5 1 0.0811712 3.08838 12.4425
113 5 1.41935 1.57999 10.7196
2 2 2.79499 0.0292945 12.4314
6 2 3.001 2.97306 12.4092
114 3 4.40536 1.5808 10.8495
115 4 7.26834 1.38513 11.1592
116 4 10.5511 1.61664 10.8455
1 1 12.1995 0.0139587 12.3351
117 4 1.62753 4.7451 10.8457
9 2 0.0451693 6.14477 12.2967
118 5 4.86302 4.68788 10.9201
119 4 8.02845 4.36158 10.6968
12 1 9.53402 6.15845 12.2524
120 3 11.0768 4.69627 10.7835
121 3 1.65782 7.82094 10.8591
57 2 0.0428505 6.43869 9.52627
10 2 3.13587 6.43368 12.4054
122 4 4.69451 7.84639 11.024
123 4 7.76513 7.41165 10.9167
13 2 12.3064 9.25105 12.4645
124 3 11.0785 7.64439 10.9265
16 1 9.61697 9.16159 12.3379
61 2 12.4094 9.33939 9.52651
64 1 9.53251 9.11478 9.5237
14 2 2.87881 9.36836 12.1984
125 5 1.55571 10.9061 10.8669
51 1 6.07823 12.2756 9.44202
126 4 4.64107 11.0314 11.1029
127 5 7.78174 10.6914 11.0063
49 1 12.1926 12.4299 9.53205
128 3 10.7145 10.8106 10.9035
ITEM: TIMESTEP
1000
ITEM: NUMBER OF ATOMS
128
ITEM: BOX BOUNDS pp pp pp
-8.5113515415108587e-02 1.2499948186186854e+01
-4.3293421419128286e-02 1.2511998702775561e+01
1.0671199193712599e-01 1.2396765012562984e+01
ITEM: ATOMS id type x y z
65 5 1.42995 1.53521 1.45629
66 4 4.74766 1.19598 1.38205
67 4 7.7169 1.29154 1.95478
8 2 9.17017 2.44349 0.574277
68 5 11.0348 1.31003 1.70437
69 4 1.00323 4.81789 1.70083
70 4 4.25834 4.43073 1.44344
11 2 6.18704 6.03578 0.311189
71 4 7.97961 4.62852 1.88614
7 1 6.41155 3.17826 0.362304
72 3 10.7067 4.10208 1.01519
73 3 1.40152 7.88103 1.65779
29 1 12.4893 9.18725 3.40693
74 5 4.50945 7.72627 1.86566
75 4 7.88061 7.77798 1.53782
76 4 10.9698 7.27294 1.87984
77 5 1.53699 10.9417 1.57893
15 2 5.89657 9.30069 0.385027
78 3 4.51561 10.6845 1.68362
18 1 3.06483 12.5208 2.98433
3 2 6.4359 11.8862 0.584214
79 3 7.88435 10.6883 1.83129
4 2 9.20304 12.177 0.357582
80 5 10.913 10.5498 1.82347
21 2 12.5346 2.78754 3.08177
22 1 2.81462 3.26022 3.18044
37 1 12.5011 2.93646 5.99227
81 3 1.64 1.53922 4.4883
33 1 12.4614 0.204709 6.12231
82 5 4.54746 1.59133 4.48318
83 4 7.68622 1.49659 4.96123
24 2 9.43845 2.85477 3.20106
84 3 10.9577 1.54577 4.59245
40 1 9.62776 2.93025 6.16799
85 4 1.36137 4.68529 4.85504
86 5 4.51161 4.80367 4.60189
23 1 6.10802 3.28496 2.9886
87 3 7.77705 4.75461 4.86234
88 4 10.9141 4.74534 4.19057
26 2 2.89522 6.33106 3.29235
25 1 0.236283 6.47975 3.47762
89 3 1.75953 7.91057 4.90778
41 1 0.168815 6.63722 6.31964
27 1 6.35392 6.20839 3.29757
90 3 4.6597 7.98337 4.84957
28 2 9.10527 6.39469 3.49808
32 2 9.37672 9.18991 3.39856
91 3 7.65484 7.90412 4.68306
44 2 9.14989 6.45844 6.28958
92 3 10.9117 7.83777 4.81697
30 1 3.03999 9.45582 3.30136
45 1 0.160826 9.30872 6.30326
93 5 1.46133 11.1107 4.74698
31 2 6.09576 9.4016 3.24057
46 2 3.19663 9.62509 6.26111
19 2 6.08576 12.2606 3.35763
35 2 5.85679 12.4825 6.21484
47 1 5.95357 9.5604 6.26867
94 3 4.57198 11.0364 4.73069
20 1 9.39946 12.2934 3.1787
95 5 7.77993 10.9798 4.83611
17 2 12.554 -0.103906 3.13228
48 1 9.30626 9.30675 6.10733
96 5 10.9315 10.9899 4.80316
36 1 9.57802 0.226376 6.33775
38 2 3.22263 3.12117 6.2346
97 3 1.66468 1.8278 7.48272
50 2 3.14554 0.143427 9.0898
54 1 3.03949 3.17279 9.06541
98 4 4.82466 1.57255 7.51965
99 5 8.13656 1.78582 8.19368
100 5 11.308 1.61129 7.94384
101 3 1.61528 4.9794 7.80711
53 2 0.147762 3.40732 8.95927
102 3 4.65635 4.59853 7.60224
39 2 6.14058 3.41873 6.11916
59 1 5.85246 6.43544 8.8873
55 2 6.1765 3.00917 9.22662
103 4 7.75093 4.8138 7.846
104 4 11.0766 4.90642 7.29814
56 1 9.89319 3.50511 8.95257
105 5 1.63588 7.98462 8.02026
42 1 3.1526 6.25104 6.27819
43 1 6.01619 6.3567 6.23922
106 3 4.4902 8.06474 7.74838
58 1 3.36039 6.27453 9.14808
107 5 7.64604 8.05524 7.84768
108 5 10.8775 7.89954 7.73343
60 2 9.51829 6.11406 9.2283
109 5 1.36996 11.1677 7.83821
34 2 3.01651 12.6671 6.24408
62 2 3.32342 9.68 9.21195
110 3 4.45173 11.1789 7.75329
63 1 5.95509 9.46263 9.14057
111 4 7.69408 11.1024 7.85159
52 1 9.28748 12.2721 9.70451
112 5 10.7521 11.0078 7.86145
5 1 0.0909256 3.23283 11.9064
113 5 1.1994 1.46214 10.4088
2 2 2.79267 0.111173 12.1903
6 2 2.91071 2.64177 12.0967
114 3 4.35964 1.7176 10.6483
115 4 7.19765 1.14291 11.2177
116 4 10.5727 1.6989 10.8302
1 1 12.4198 12.3099 12.3678
117 4 1.83049 4.7158 10.7446
9 2 12.554 6.24997 12.0193
118 5 5.03966 4.89658 10.7343
119 4 8.33908 4.16981 10.8505
12 1 9.73093 6.15412 12.0868
120 3 11.1982 4.88304 10.4319
121 3 1.46074 7.82374 10.9115
57 2 -0.0393339 6.45598 9.26978
10 2 2.62927 6.42424 0.380593
122 4 4.51194 7.94233 10.9367
123 4 7.66576 7.21814 10.8059
13 2 12.4827 9.17635 12.5576
124 3 11.0838 7.74153 10.756
16 1 9.53576 8.96334 12.2722
61 2 12.4343 9.36703 9.45625
64 1 9.59146 9.34293 9.45085
14 2 2.97558 9.24626 0.0780292
125 5 1.49768 10.7738 10.9153
51 1 6.00169 -0.0426806 9.22238
126 4 4.57536 11.2701 11.0197
127 5 7.65086 10.456 11.043
49 1 12.2094 12.2454 9.5655
128 3 10.832 10.811 11.0139
ITEM: TIMESTEP
2000
ITEM: NUMBER OF ATOMS
128
ITEM: BOX BOUNDS pp pp pp
4.9799821532718447e-02 1.2365034849239017e+01
-4.0237719493010360e-02 1.2508943000849481e+01
-2.6086914934421834e-02 1.2529563919434484e+01
ITEM: ATOMS id type x y z
65 5 1.68596 1.60548 1.57779
21 2 12.3783 2.66537 3.11454
66 4 4.68584 1.39796 1.1892
18 1 3.22778 12.3298 3.16655
67 4 7.60863 1.09939 2.03744
8 2 8.97586 2.60335 0.273431
68 5 10.8848 1.27431 1.59207
69 4 1.06186 4.79032 1.64367
70 4 4.29402 4.46444 1.62433
11 2 6.53916 5.90763 0.078932
23 1 6.22092 3.21238 3.09666
71 4 8.10984 4.60093 1.88408
7 1 6.33269 3.20968 0.289542
72 3 10.5975 4.03425 0.966154
73 3 1.43522 7.80385 1.44919
10 2 2.7358 6.40575 0.0920836
74 5 4.46354 7.61401 1.52162
15 2 6.11351 9.40119 0.157377
75 4 7.66042 7.72255 1.52459
76 4 10.8102 7.32558 1.82645
13 2 12.3611 9.23433 -0.3007
77 5 1.58464 11.0238 1.39082
17 2 12.4078 12.5662 3.18029
78 3 4.66848 10.7583 1.60682
3 2 6.46944 11.9252 0.472661
79 3 7.82114 10.6859 1.64544
4 2 9.21371 12.2253 12.5966
80 5 10.8564 10.6329 1.60158
20 1 9.51434 12.386 3.22236
37 1 12.3441 2.78523 5.9045
81 3 1.60278 1.49519 4.63503
34 2 3.13623 12.6572 5.98258
82 5 4.67306 1.55923 4.52607
83 4 7.70041 1.43937 5.22111
33 1 12.3785 0.070838 5.9997
24 2 9.29981 2.68275 3.2977
84 3 10.8619 1.50779 4.61398
40 1 9.57453 3.01195 6.30994
22 1 3.12227 3.2386 3.30548
85 4 1.58796 4.67025 4.65431
86 5 4.7028 4.71242 4.80311
38 2 3.4094 3.18286 6.22584
39 2 6.27878 3.28268 6.6539
87 3 7.91674 4.57728 4.87075
27 1 6.20623 6.24681 3.40368
88 4 10.6875 4.72835 4.10691
26 2 2.83532 6.59403 3.26831
25 1 0.226751 6.62972 3.44796
89 3 1.64999 8.22899 4.8557
90 3 4.61992 7.77762 4.57768
43 1 6.07847 6.61682 6.24961
28 2 8.87893 6.5757 3.44696
91 3 7.60966 7.9566 4.78879
48 1 9.26524 9.38624 6.13214
29 1 -0.0512086 9.23402 3.1506
32 2 9.25316 9.2633 3.39317
92 3 10.7167 7.79449 4.80014
30 1 2.95217 9.29835 2.8386
93 5 1.42271 10.9896 4.54891
31 2 5.97308 9.25767 3.22511
19 2 5.88434 12.1901 3.18559
35 2 5.73332 12.2653 5.97079
94 3 4.47752 10.7866 4.64622
95 5 7.59504 11.0395 4.75154
96 5 10.8317 10.842 4.71266
97 3 1.9383 1.74297 7.66323
50 2 3.09834 0.142893 9.19851
98 4 4.86703 1.57607 7.68542
55 2 6.18959 3.25404 9.25175
51 1 6.14907 12.3269 9.33947
99 5 8.04956 1.74091 8.39536
36 1 9.53665 0.166452 6.47678
100 5 11.2182 1.56439 8.03582
54 1 3.0692 3.37025 9.05816
101 3 1.79867 4.82644 7.68441
53 2 0.244462 3.49662 9.09597
102 3 4.81376 4.76512 7.81142
103 4 7.82404 4.96962 7.82535
104 4 11.0735 4.88883 7.37916
56 1 9.64622 3.53565 9.03377
60 2 9.56262 6.23091 9.28097
41 1 0.404047 6.55951 6.1576
45 1 0.21397 9.45859 6.4867
105 5 1.72178 8.0613 7.84641
57 2 0.101236 6.27666 9.32363
59 1 6.08325 6.4107 9.08323
42 1 3.13124 6.47597 6.25486
106 3 4.54564 7.95795 7.83941
58 1 3.23991 6.20923 9.35225
44 2 9.0567 6.67016 6.0373
107 5 7.81643 7.94232 7.87166
108 5 10.9252 7.87081 7.6724
109 5 1.57953 11.364 7.77093
46 2 3.10478 9.47361 6.20788
47 1 5.97283 9.48851 6.36992
62 2 3.3559 9.61267 9.22113
110 3 4.55359 11.0721 7.80403
63 1 5.9494 9.41048 9.10512
111 4 7.68458 11.1283 7.81064
112 5 10.7428 10.932 7.89408
113 5 1.47141 1.60798 10.634
2 2 2.87855 0.16133 12.0972
6 2 3.22012 2.9333 12.1571
114 3 4.50546 1.87766 10.7357
115 4 7.21708 1.10737 11.4257
116 4 10.4474 1.62172 10.9654
5 1 0.321821 2.89319 12.5282
117 4 1.76781 4.7113 10.9766
118 5 4.84526 4.80785 10.9431
119 4 7.90447 4.13382 10.9498
12 1 9.66938 6.20769 12.2127
120 3 10.8911 4.71323 10.7423
9 2 -0.0217755 6.29681 12.2664
121 3 1.53765 7.73972 10.919
14 2 2.96442 9.43172 0.140483
122 4 4.5296 8.12161 10.868
123 4 7.68915 7.35023 10.8976
124 3 10.8943 7.73051 10.8103
16 1 9.28485 8.95071 12.2696
61 2 -0.0583168 9.53123 9.31244
64 1 9.48777 9.17475 9.43036
125 5 1.64793 10.8465 10.8506
126 4 4.64368 11.2165 11.1214
52 1 9.14545 12.0673 9.72531
127 5 7.58038 10.5001 11.0921
1 1 12.1745 12.5402 12.2618
49 1 12.0466 12.3635 9.68087
128 3 10.7964 10.6175 11.0234
ITEM: TIMESTEP
3000
ITEM: NUMBER OF ATOMS
128
ITEM: BOX BOUNDS pp pp pp
-7.6319394059598089e-02 1.2491154064831312e+01
-5.1462589297179839e-02 1.2520167870653635e+01
1.0520720679185835e-01 1.2398269797708164e+01
ITEM: ATOMS id type x y z
65 5 1.57515 1.68149 1.528
66 4 4.53141 1.17015 1.13205
67 4 7.64758 1.2553 2.19782
8 2 8.90579 2.74665 0.680086
68 5 10.8155 1.36734 1.73344
69 4 1.12248 4.85445 1.752
70 4 4.49005 4.46502 1.54441
11 2 6.02348 6.0895 0.276739
23 1 6.54813 3.31686 3.40086
71 4 8.00582 4.80709 1.87762
7 1 6.03842 3.1216 12.4669
72 3 10.8375 4.17198 0.979423
73 3 1.53103 7.74365 1.64991
10 2 3.05541 6.31823 0.143009
30 1 2.76325 9.4788 3.24329
74 5 4.52248 7.59323 1.68331
75 4 7.87301 7.87467 1.68368
76 4 11.0871 7.16511 1.7234
77 5 1.45586 11.0169 1.56006
14 2 2.83022 9.16338 0.286415
15 2 6.03604 9.12376 0.415056
78 3 4.63347 10.4825 1.63214
3 2 6.40343 11.9159 0.53273
79 3 7.84853 10.7652 1.67449
4 2 9.19439 12.3879 0.352108
80 5 10.9494 10.6792 1.58491
21 2 0.00883132 2.76359 3.26102
17 2 0.139979 0.0103477 3.19996
81 3 1.63206 1.52098 4.62831
33 1 0.0629423 0.134796 6.08236
34 2 3.00701 0.0967061 6.07591
82 5 4.71723 1.67151 4.29986
83 4 7.56131 1.49682 5.13068
37 1 12.4241 3.01634 6.19336
24 2 9.25257 2.88603 3.42522
84 3 10.9263 1.58385 4.61356
22 1 2.74261 3.23887 3.21129
85 4 1.31998 4.56535 4.88927
86 5 4.61676 4.83764 4.64847
38 2 3.30502 3.08583 6.04669
87 3 7.91972 4.72091 5.04259
88 4 10.9976 4.72181 3.98139
26 2 2.89957 6.43306 3.27795
25 1 0.230315 6.68783 3.58118
89 3 1.88508 8.0018 4.76518
41 1 0.279411 6.61448 6.25931
27 1 6.39122 6.44871 3.51665
90 3 4.65248 7.83472 4.68395
43 1 6.08709 6.53001 6.34905
31 2 6.12869 9.19133 3.32355
28 2 8.91961 6.45944 3.54413
91 3 7.62945 7.98122 4.76585
32 2 9.42715 9.38769 3.33657
44 2 9.17945 6.55861 6.24667
29 1 -0.117512 9.14817 3.26382
92 3 10.7526 7.73939 4.84374
93 5 1.42468 11.019 4.67751
46 2 2.96137 9.48355 6.27686
18 1 3.17769 12.4751 3.09603
19 2 5.88877 11.9642 3.02074
35 2 5.96657 12.2786 5.99411
94 3 4.46837 10.8779 4.69956
48 1 9.33119 9.4549 6.28096
95 5 7.71508 10.8965 4.59529
20 1 9.45134 12.2206 3.25768
96 5 10.9501 10.9835 4.65027
97 3 1.68547 1.82134 7.44169
50 2 3.04117 0.0847403 9.28985
98 4 4.94402 1.64775 7.47339
99 5 8.02539 1.54546 8.18839
40 1 9.50923 2.73664 6.17153
36 1 9.52584 0.0134624 6.1512
100 5 11.1613 1.42848 7.82349
54 1 3.0698 3.25829 8.84998
101 3 1.45399 4.79103 7.88627
53 2 -0.0328818 3.4207 9.15519
55 2 6.09438 2.65435 9.61653
102 3 4.69366 4.7605 7.64985
58 1 3.23221 6.03806 9.02368
39 2 6.09246 3.61202 6.33628
103 4 7.53929 4.85821 8.15791
104 4 10.8825 4.94546 7.22742
56 1 9.70797 3.33227 9.00685
60 2 9.46844 6.15322 9.18906
105 5 1.78197 7.96643 8.0388
57 2 0.215758 6.53276 9.42065
59 1 5.72722 6.55539 8.91842
42 1 3.09814 6.27381 6.28376
106 3 4.51172 8.15235 7.59815
107 5 7.64789 7.97639 7.86005
108 5 11.0007 7.82676 8.0976
45 1 12.4813 9.25909 6.19322
109 5 1.49625 11.2016 7.85105
51 1 5.97034 0.031247 9.30884
47 1 6.18486 9.57669 6.00717
62 2 3.07684 9.95687 9.38848
110 3 4.45253 11.1748 7.77175
63 1 5.8717 9.45913 9.3866
111 4 7.72302 11.0622 7.71176
112 5 11.1058 10.7998 7.84191
61 2 12.4587 9.3728 9.52603
113 5 1.19904 1.60485 10.3595
2 2 2.77133 0.407967 11.9333
5 1 0.0755373 3.12612 12.0188
6 2 2.88769 3.15932 0.304116
114 3 4.22809 1.74249 10.5845
115 4 7.45157 1.13329 11.3082
116 4 10.5749 1.83215 10.8317
1 1 -0.123327 -0.0452014 12.422
117 4 1.80356 4.66892 10.8264
118 5 5.0847 4.77107 10.5578
119 4 8.33222 4.38968 11.159
12 1 9.63948 6.2158 12.1618
120 3 11.2193 4.97474 10.4088
121 3 1.56742 7.77721 11.0716
122 4 4.33646 7.88244 10.7826
123 4 7.48366 7.37972 10.8346
16 1 9.70994 8.98905 12.443
13 2 -0.0266056 8.94744 0.199374
9 2 -0.0557734 6.07386 12.1538
124 3 11.1515 7.82215 10.9292
64 1 9.51993 9.24697 9.66635
125 5 1.42596 10.836 10.9541
126 4 4.6022 11.2447 10.9865
52 1 9.2581 12.2993 9.56425
127 5 7.63656 10.5334 10.8086
49 1 12.1177 12.1658 9.71685
128 3 10.8558 10.8768 11.1566
ITEM: TIMESTEP
4000
ITEM: NUMBER OF ATOMS
128
ITEM: BOX BOUNDS pp pp pp
-6.1400062098494246e-02 1.2476234732870164e+01
-5.2169268458289508e-02 1.2520874549814746e+01
6.2522550998476589e-02 1.2440954453501574e+01
ITEM: ATOMS id type x y z
65 5 1.54224 1.3549 1.70862
66 4 4.70349 1.0301 1.32055
67 4 7.68873 1.3506 1.78613
8 2 9.07388 2.88683 0.24121
68 5 10.9428 1.13808 1.38805
1 1 0.0501704 12.2021 12.3984
69 4 1.23485 4.78205 1.66359
6 2 2.8622 2.86867 12.2889
70 4 4.4566 4.49543 1.66923
11 2 6.08533 6.37955 0.238396
7 1 6.17922 3.20629 0.187137
71 4 8.1102 4.75894 1.75289
72 3 10.8755 4.22539 0.934596
73 3 1.68646 7.71794 1.67041
10 2 2.87492 6.51939 0.0345774
14 2 3.04136 9.24798 0.313969
13 2 0.0505074 9.37014 12.368
74 5 4.56426 7.66108 1.66546
15 2 6.21407 9.28418 0.370047
75 4 7.75558 7.77443 1.52603
76 4 11.2444 7.39202 1.86158
16 1 9.78704 9.1441 0.369525
77 5 1.33861 10.7234 1.5957
78 3 4.71646 10.6653 1.69769
18 1 2.97897 12.3887 3.17123
19 2 6.15639 12.1651 3.18066
3 2 6.6239 11.9616 0.533772
79 3 7.95382 10.698 1.83081
4 2 9.1794 12.3146 0.215612
80 5 10.9748 10.5783 1.65827
21 2 12.4353 2.95866 3.03037
17 2 -0.139835 -0.159229 3.15055
81 3 1.42798 1.50724 4.645
33 1 0.0584787 0.22674 6.15219
34 2 3.04571 0.00430757 6.1187
82 5 4.75322 1.61665 4.44533
38 2 3.11897 2.87759 5.99541
83 4 7.84202 1.74736 4.86851
24 2 9.60129 2.81491 2.98296
37 1 12.5339 2.8167 5.91995
84 3 10.8309 1.59986 4.59899
40 1 9.37384 3.35783 6.09203
36 1 9.61199 0.15842 6.19505
22 1 2.83045 2.8977 3.15499
85 4 1.44837 4.67206 4.77609
86 5 4.56922 4.67304 4.84945
23 1 6.31008 3.24256 3.3393
87 3 7.7416 4.75747 4.83805
88 4 10.8511 4.87123 3.98734
26 2 2.9101 6.2807 3.35493
25 1 0.290528 6.53599 3.52669
89 3 1.78172 7.91044 4.78148
90 3 4.57774 7.7617 4.83749
31 2 5.97205 9.34722 3.27718
27 1 6.32618 6.1166 3.16471
28 2 9.127 6.55083 3.47679
91 3 7.47783 7.74543 4.64686
44 2 9.11713 6.5415 5.99776
29 1 0.0344827 9.30783 3.37749
92 3 10.6849 7.84687 4.85572
45 1 0.0529892 9.34443 6.2762
30 1 2.98552 9.37731 3.1069
93 5 1.37441 10.9411 4.81682
35 2 6.14191 0.0423821 6.41846
94 3 4.55075 10.9932 4.81384
47 1 6.11963 9.32718 6.20934
95 5 7.67832 10.9371 4.69113
32 2 9.54652 9.11288 3.17018
20 1 9.59478 0.114195 3.32595
96 5 10.8453 10.882 4.80625
97 3 1.58678 1.87706 7.54506
50 2 3.34219 -0.046879 9.34469
98 4 4.75655 1.72023 7.66273
51 1 5.86734 0.165474 9.08776
99 5 7.80108 1.91714 8.06083
100 5 11.1549 1.51881 7.77259
101 3 1.5139 4.97546 7.88152
53 2 0.0710535 3.47315 9.06146
54 1 2.90396 3.30188 9.05736
102 3 4.62687 4.81254 7.8381
58 1 3.23441 6.51736 9.34127
39 2 6.31866 3.18632 6.42649
103 4 7.98317 5.04445 7.95388
104 4 11.326 4.95951 7.16389
56 1 9.91707 3.43533 8.75123
60 2 9.58748 6.30101 9.28563
41 1 0.164309 6.68774 6.02864
105 5 1.49163 8.06064 7.88657
43 1 5.94868 6.48379 6.4062
59 1 5.94864 6.45026 9.21482
42 1 3.07493 6.45219 6.34782
106 3 4.48088 8.04855 7.89545
107 5 7.62404 7.95834 7.76027
108 5 10.7967 7.85453 7.73767
46 2 3.15302 9.84717 6.39358
109 5 1.42165 11.29 7.92277
110 3 4.5034 11.1562 7.70395
48 1 9.21469 9.12443 6.07653
111 4 7.73368 11.2806 7.81758
112 5 10.7977 10.8741 7.80281
113 5 1.29275 1.44085 10.6391
2 2 2.74237 0.00848509 12.1016
55 2 5.9052 3.22417 9.41814
114 3 4.26792 1.88937 10.7173
115 4 7.28156 0.988918 11.1702
116 4 10.5643 1.64036 10.8859
5 1 -0.0332225 2.72069 0.0575431
117 4 1.54904 4.54239 10.9161
9 2 -0.0830174 6.25892 12.19
118 5 4.69722 4.70369 11.0227
119 4 7.83615 4.20416 10.754
12 1 9.68867 6.10918 0.0941031
120 3 11.1577 4.85849 10.3878
57 2 0.203446 6.51372 9.35336
121 3 1.55668 7.90519 10.9336
122 4 4.85696 8.01961 10.9408
123 4 7.8524 7.36477 10.9023
61 2 12.5739 9.52308 9.5417
124 3 11.1219 7.81339 10.8752
64 1 9.46206 9.16815 9.61303
125 5 1.58959 10.9138 10.7851
62 2 3.15314 9.74576 9.10213
63 1 5.99255 9.41153 9.10739
126 4 4.63526 11.3487 10.9886
52 1 9.44492 12.1862 9.83543
127 5 7.70446 10.4181 11.0721
49 1 12.0749 -0.132503 9.52083
128 3 10.8507 10.8364 11.0857
