ITEM: TIMESTEP
1000
ITEM: NUMBER OF ATOMS
128
ITEM: BOX BOUNDS pp pp pp
0.0000000000000000e+00 1.2414834670771800e+01
0.0000000000000000e+00 1.2468705281356399e+01
0.0000000000000000e+00 1.2503477004500100e+01
ITEM: ATOMS id type x y z v_sa_hydro v_sa_von
65 5 1.56138 1.44124 1.57533 -2.49181 12.4993
66 4 4.78176 1.51584 1.36648 -2.2234 15.1175
67 4 7.71283 1.4061 1.92394 -8.92542 20.7254
8 2 9.01505 2.79034 0.299421 5.43798 6.23535
68 5 10.8432 1.38356 1.65731 -5.37177 12.7188
69 4 1.2093 4.80812 1.70478 4.46686 15.2487
70 4 4.49799 4.76436 1.50128 -3.14433 10.8164
11 2 6.21638 6.19187 0.271133 6.63078 12.789
71 4 7.88279 4.7767 1.80406 -2.6821 15.4202
7 1 6.38457 3.30512 0.303928 -0.409908 6.40295
72 3 10.7046 4.27866 1.26397 2.54194 10.656
73 3 1.50324 7.77361 1.23707 3.35584 11.5828
29 1 0.192908 9.18402 3.10997 5.92686 6.82195
74 5 4.5354 7.92056 1.65143 -14.4917 12.2038
75 4 7.8067 7.74877 1.56923 -7.29694 13.5674
76 4 10.8404 7.38835 1.66187 4.84813 16.9516
77 5 1.51162 10.846 1.52692 -7.05272 10.9151
15 2 5.98016 9.42179 0.328736 1.89202 7.55649
78 3 4.56805 10.8238 1.57565 -10.1597 14.4732
18 1 3.14352 12.3072 3.02675 -1.21961 4.96374
3 2 6.36328 12.0869 0.374738 -1.29251 7.17138
79 3 7.58953 10.7061 1.52667 -4.53079 14.2756
4 2 9.25606 12.3863 0.197157 13.3802 5.32126
80 5 10.6879 10.6409 1.59154 2.78355 7.53058
21 2 0.110273 2.95286 3.39279 9.79112 8.06364
22 1 3.00528 3.07606 3.14437 6.58454 5.56967
37 1 0.0691675 2.78798 6.06944 0.506687 11.2954
81 3 1.61236 1.42341 4.72336 -0.389334 17.0768
33 1 0.209414 0.0311776 6.1415 0.14629 12.8387
82 5 4.72215 1.49039 4.52633 -6.74833 13.748
83 4 7.67717 1.45679 5.17656 -5.90886 18.9481
24 2 9.3536 2.78282 3.35257 8.93851 12.2834
84 3 10.8373 1.43177 4.81162 -0.148854 8.58012
40 1 9.34306 3.1139 6.02 5.28309 11.905
85 4 1.41211 4.71139 4.87984 -10.9103 16.6403
86 5 4.59098 4.7297 4.83022 -12.0714 10.7256
23 1 6.1589 3.36135 3.31493 3.65089 13.1618
87 3 7.80246 4.70304 4.70469 5.47383 14.3404
88 4 10.8462 4.77966 4.23174 5.16701 13.599
26 2 3.04406 6.31786 3.29133 11.3323 7.79919
25 1 0.431952 6.67702 3.36638 -10.0617 12.0756
89 3 1.80923 7.89643 4.67985 -6.58891 14.6127
41 1 0.0650473 6.70202 5.88598 -6.76215 16.9146
27 1 6.01874 6.29255 3.18762 6.15437 5.93508
90 3 4.69195 7.80799 4.68196 -4.11949 4.00206
28 2 9.03958 6.50356 3.55002 -0.0211672 7.66861
32 2 9.22001 9.2916 3.39217 4.89644 7.839
91 3 7.67296 7.93415 4.77188 1.63778 7.61446
44 2 8.98159 6.41818 6.18804 9.05757 8.56862
92 3 10.8819 7.83999 4.65695 0.412015 17.5025
30 1 3.06049 9.3882 3.13506 -0.879794 13.4396
45 1 0.244002 9.36776 6.04172 1.77093 9.37023
93 5 1.60441 11.0582 4.64868 -24.5527 17.8042
31 2 6.00457 9.46278 3.21759 10.2442 9.65451
46 2 3.24615 9.37772 6.2299 13.5696 7.55554
19 2 5.90704 12.1868 3.16457 2.96205 11.6302
35 2 5.86964 12.1867 5.91909 -3.13454 6.82733
47 1 5.93408 9.39388 6.21767 2.72735 8.30441
94 3 4.59151 10.7964 4.61697 -12.6558 12.0587
20 1 9.2986 12.4592 3.39925 -0.588905 16.5398
95 5 7.71898 10.8525 4.56427 -15.4587 12.7706
17 2 12.2674 12.346 3.24253 9.57777 14.7306
48 1 9.38646 9.36122 6.23126 2.13538 7.78077
96 5 10.9413 10.8103 4.68765 -18.799 7.15136
36 1 9.51849 12.3905 6.23797 0.0153436 11.4155
38 2 3.07105 3.04264 6.27953 14.0051 9.24475
97 3 1.63327 1.73601 7.80962 0.816289 10.269
50 2 3.14039 0.0499909 9.17756 10.1902 9.88319
54 1 3.15124 3.05075 9.21737 4.92378 2.62025
98 4 4.83298 1.48012 7.66383 -7.40196 19.7021
99 5 7.85781 1.92446 8.20423 -2.18909 9.9552
100 5 10.9511 1.55118 7.87334 -8.73214 14.7334
101 3 1.65659 4.68978 7.79067 -2.3513 14.4257
53 2 0.0622752 3.39318 8.95523 6.96287 8.5069
102 3 4.66786 4.67895 7.64907 -4.13842 12.3294
39 2 6.15849 3.36403 6.27617 7.84464 9.87803
59 1 5.93406 6.21751 9.08764 -1.07614 10.6929
55 2 5.89362 3.20091 9.26435 3.65736 15.599
103 4 7.77291 4.89372 7.83784 -13.325 25.5723
104 4 11.2009 4.8985 7.37227 -2.37566 13.3339
56 1 9.78705 3.54161 8.96582 -9.17706 9.32798
105 5 1.64119 7.96999 7.92739 -8.21274 11.3208
42 1 3.06773 6.2431 6.36357 4.00072 5.9507
43 1 6.05798 6.37576 6.38977 5.5387 7.9509
106 3 4.59379 7.94245 7.73822 -1.11374 10.5479
58 1 3.1107 6.28027 9.35133 6.14462 8.03641
107 5 7.74297 7.93965 7.91097 -4.30173 7.25419
108 5 10.9578 7.84832 7.7596 -13.2985 20.1383
60 2 9.68185 6.36521 9.32103 9.90079 9.86827
109 5 1.61823 11.0309 7.7916 -14.9279 12.7544
34 2 3.15664 12.4102 6.32978 10.0244 16.5744
62 2 3.24949 9.50793 9.2517 10.0856 6.80534
110 3 4.57276 10.9621 7.75198 -8.95165 15.2658
63 1 6.03138 9.55136 9.21285 1.55121 5.75817
111 4 7.62635 11.1002 7.70164 -1.63187 20.1205
52 1 9.21092 12.3121 9.35863 2.80562 10.8236
112 5 10.947 10.8762 7.86249 -10.1384 10.2378
5 1 0.0811712 3.08838 12.4425 3.53509 7.49199
113 5 1.41935 1.57999 10.7196 -3.70964 11.5223
2 2 2.79499 0.0292945 12.4314 6.25919 12.2335
6 2 3.001 2.97306 12.4092 11.9628 5.45553
114 3 4.40536 1.5808 10.8495 0.926041 8.99412
115 4 7.26834 1.38513 11.1592 -1.4342 7.45506
116 4 10.5511 1.61664 10.8455 6.07077 11.0375
1 1 12.1995 0.0139587 12.3351 8.49758 7.99156
117 4 1.62753 4.7451 10.8457 -10.038 12.6281
9 2 0.0451693 6.14477 12.2967 7.49845 20.1727
118 5 4.86302 4.68788 10.9201 1.00232 10.6702
119 4 8.02845 4.36158 10.6968 1.10594 15.0267
12 1 9.53402 6.15845 12.2524 0.014415 6.621
120 3 11.0768 4.69627 10.7835 1.95773 15.6359
121 3 1.65782 7.82094 10.8591 -7.62362 10.4369
57 2 0.0428505 6.43869 9.52627 7.73229 10.3176
10 2 3.13587 6.43368 12.4054 7.88842 6.98539
122 4 4.69451 7.84639 11.024 -9.26381 8.79118
123 4 7.76513 7.41165 10.9167 -1.47893 12.0175
13 2 12.3064 9.25105 12.4645 16.4226 5.77925
124 3 11.0785 7.64439 10.9265 -5.08547 9.03854
16 1 9.61697 9.16159 12.3379 0.897575 7.75049
61 2 12.4094 9.33939 9.52651 9.85819 8.12115
64 1 9.53251 9.11478 9.5237 2.92945 9.49746
14 2 2.87881 9.36836 12.1984 5.12415 6.59156
125 5 1.55571 10.9061 10.8669 -13.5022 18.6361
51 1 6.07823 12.2756 9.44202 -3.64495 13.3628
126 4 4.64107 11.0314 11.1029 -10.2192 14.5208
127 5 7.78174 10.6914 11.0063 2.30978 12.1526
49 1 12.1926 12.4299 9.53205 -0.812998 11.1671
128 3 10.7145 10.8106 10.9035 1.89824 16.2626
ITEM: TIMESTEP
1037
ITEM: NUMBER OF ATOMS
128
ITEM: BOX BOUNDS pp pp pp
0.0000000000000000e+00 1.2414834670771800e+01
0.0000000000000000e+00 1.2468705281356399e+01
0.0000000000000000e+00 1.2503477004500100e+01
ITEM: ATOMS id type x y z v_sa_hydro v_sa_von
65 5 1.51158 1.51911 1.46948 -9.89963 13.3389
66 4 4.60002 1.18504 1.10826 -1.50727 16.3551
67 4 7.49221 1.24908 2.12433 -1.94287 18.4641
8 2 8.84751 2.52868 0.405155 -4.85332 8.90183
68 5 10.7739 1.31999 1.56815 -10.8181 13.1263
69 4 1.18891 4.74809 1.63815 3.6239 20.7162
70 4 4.61413 4.46344 1.66681 -0.140031 14.4457
11 2 6.19164 6.09311 0.266049 6.61866 9.39039
71 4 7.97305 4.6615 1.77849 3.0909 22.8668
7 1 6.16528 3.27819 -0.0130489 1.14444 13.2687
72 3 10.6402 4.1533 0.810307 2.25901 17.3692
73 3 1.51255 7.70881 1.56 -2.12684 12.7846
29 1 12.4413 9.15989 3.16726 7.33023 7.77913
74 5 4.59533 7.58472 1.66433 -11.8528 7.3553
75 4 7.81576 7.76676 1.53302 -6.90479 10.514
76 4 10.9239 7.23125 1.70544 6.72344 18.242
77 5 1.49535 10.8587 1.43837 -2.53017 9.86109
15 2 5.97809 9.19979 0.282494 4.20082 6.44666
78 3 4.57343 10.6382 1.62648 -4.03474 13.5489
18 1 3.07851 12.3474 3.13181 1.93497 9.8009
3 2 6.36637 11.8296 0.490209 -10.5048 15.2808
79 3 7.78406 10.6405 1.71756 -4.47362 14.0552
4 2 9.162 12.1198 0.192227 13.2775 7.48713
80 5 10.8138 10.5828 1.62212 -2.31631 13.534
21 2 12.3732 2.79613 3.09686 7.65757 13.5594
22 1 2.83614 3.16109 3.12285 1.56688 9.01735
37 1 -0.112129 2.91357 5.99558 -1.20684 11.7759
81 3 1.55494 1.52829 4.54809 -1.79458 11.4939
33 1 0.0136332 0.142996 6.02922 1.87758 13.3024
82 5 4.68677 1.6223 4.35059 3.9779 12.7773
83 4 7.64042 1.51962 5.25681 0.593446 17.4697
24 2 9.2727 2.79744 3.2417 8.6463 17.79
84 3 10.855 1.53613 4.61826 -2.02734 10.667
40 1 9.53612 2.98561 6.26745 6.40103 15.1378
85 4 1.47014 4.65278 4.84751 -4.29926 9.91873
86 5 4.64802 4.8356 4.7341 -9.11432 10.4866
23 1 6.51385 3.42622 3.5334 -1.39112 6.77318
87 3 7.94064 4.8145 4.96572 8.99096 9.93326
88 4 10.8294 4.70734 3.94786 5.15268 12.9136
26 2 2.95028 6.28226 3.23773 11.7049 12.0879
25 1 0.289285 6.58521 3.49217 -9.08188 9.40929
89 3 1.72891 7.95459 4.78716 -2.45737 12.3343
41 1 0.381921 6.67902 6.33551 -1.92751 17.3743
27 1 6.35444 6.25308 3.33195 4.19874 10.2046
90 3 4.62197 7.86707 4.68657 -3.19863 5.16778
28 2 9.06172 6.51886 3.49849 -2.59129 10.8758
32 2 9.34693 9.21291 3.33879 9.79356 9.61891
91 3 7.66504 7.90021 4.73568 -3.86889 9.43373
44 2 9.0963 6.58011 6.27452 6.81951 9.82038
92 3 10.8333 7.6936 4.81317 7.83837 15.9131
30 1 2.9755 9.23889 3.02082 2.35831 7.85562
45 1 0.181117 9.39805 6.31301 2.7411 10.9411
93 5 1.53497 10.948 4.64995 -17.5121 13.9339
31 2 6.07788 9.23081 3.21459 13.621 4.81841
46 2 3.06664 9.56512 6.32852 11.7181 11.8916
19 2 5.80495 12.0483 3.127 0.821418 15.2148
35 2 5.80998 12.1891 5.89193 -3.20999 10.2192
47 1 6.03967 9.44068 6.18702 6.50391 7.39294
94 3 4.48114 10.7881 4.64571 -6.54108 11.756
20 1 9.49909 12.3502 3.2802 0.257047 17.2872
95 5 7.65994 10.943 4.57831 -8.75294 11.8435
17 2 12.3897 12.3852 3.12307 13.0002 9.40446
48 1 9.19307 9.35542 6.10384 -0.353531 11.2967
96 5 10.8878 10.7806 4.76734 -11.6563 9.12885
36 1 9.64563 0.142044 6.25328 0.549974 12.2655
38 2 3.34265 3.14704 6.12303 7.85797 15.2942
97 3 1.81605 1.8566 7.38304 -0.181133 10.8971
50 2 3.20514 0.224881 9.16354 13.2988 15.1118
54 1 3.2368 3.1856 8.93809 2.93285 10.8503
98 4 5.00048 1.60849 7.54027 -1.59418 15.8365
99 5 8.12382 1.83691 8.43287 2.05516 15.1744
100 5 11.2554 1.5381 7.94897 0.0835966 13.7883
101 3 1.67329 4.8606 7.73481 -2.51412 13.2255
53 2 0.230479 3.48107 8.88605 5.37587 6.5498
102 3 4.72234 4.76616 7.70899 -0.14334 10.6806
39 2 6.29419 3.53584 6.29719 7.9078 9.68948
59 1 5.84687 6.58986 8.97976 -6.67603 9.72714
55 2 6.07409 2.97008 9.5156 7.16897 9.44557
103 4 7.77288 4.94655 8.00739 0.527347 18.3112
104 4 11.045 4.94753 7.20645 1.18419 19.8205
56 1 9.86646 3.5605 8.96178 -10.2546 12.0105
105 5 1.66696 8.10694 8.06881 -8.42431 15.4679
42 1 3.14551 6.49332 6.33056 5.30316 3.67192
43 1 6.15446 6.49786 6.28512 9.53863 6.728
106 3 4.56896 8.06377 7.68885 -6.37589 14.6792
58 1 3.22644 6.23004 9.1604 2.75515 6.43352
107 5 7.74551 8.11368 7.88637 -4.13714 11.0076
108 5 10.9087 7.91162 7.81803 -15.2196 14.3129
60 2 9.64089 6.29831 9.3224 10.5109 9.39434
109 5 1.44585 11.3066 7.84784 0.931917 16.6007
34 2 3.07509 0.10341 6.07986 14.5074 4.84726
62 2 3.23975 9.82384 9.18248 2.68339 6.18517
110 3 4.51924 11.1049 7.68856 -4.26118 13.2764
63 1 5.95116 9.62547 9.13411 2.356 10.792
111 4 7.60199 11.307 7.67833 0.618454 18.9704
52 1 9.14085 12.144 9.8008 4.54506 5.968
112 5 10.6976 10.9122 7.93742 -6.52151 12.5617
5 1 0.13734 2.99014 12.3963 0.673858 10.7801
113 5 1.22422 1.57371 10.4152 4.51974 13.3131
2 2 2.72104 0.309038 12.0385 1.57587 12.6148
6 2 3.01907 3.16476 12.5577 10.1333 12.9707
114 3 4.26425 1.89935 10.7338 0.957759 16.0569
115 4 7.20028 1.1208 11.406 -3.75078 12.331
116 4 10.4167 1.74248 10.983 6.72763 11.215
1 1 12.3509 0.0608053 12.3276 5.35339 9.52439
117 4 1.81558 4.64708 10.8355 -6.69641 7.35261
9 2 0.0721554 6.17408 12.1992 9.10177 9.10667
118 5 4.98456 4.90646 10.8514 4.42968 17.4853
119 4 8.25027 4.1409 11.031 2.02113 13.3395
12 1 9.64376 6.18429 12.1592 -1.27552 11.2388
120 3 11.2522 4.74224 10.5527 -2.59701 12.4334
121 3 1.56316 7.7218 11.0551 -1.43078 2.62302
57 2 0.183063 6.34543 9.27466 14.4376 12.2173
10 2 3.01174 6.20097 0.109896 13.8309 9.28921
122 4 4.52882 8.06119 10.9066 2.34305 11.4162
123 4 7.61114 7.24557 10.8609 3.46115 11.132
13 2 0.0289564 9.06963 0.027813 14.3425 6.08973
124 3 11.0333 7.71244 10.879 -4.65208 9.20023
16 1 9.5437 8.97176 12.3743 1.71794 8.95107
61 2 12.2392 9.3897 9.54782 8.65146 10.8822
64 1 9.43546 9.22784 9.65981 1.54741 12.2599
14 2 2.95069 9.08613 0.209659 7.49003 11.3571
125 5 1.53039 10.7755 10.8699 -3.5932 14.73
51 1 6.07295 12.4929 9.37721 -2.28213 19.571
126 4 4.5907 11.2817 11.1377 0.00508921 14.442
127 5 7.59368 10.4263 11.0997 4.18688 16.2091
49 1 11.978 12.1966 9.75083 -7.04094 13.6574
128 3 10.7639 10.779 11.1705 -0.335745 22.7227
