/home/sez26/TIGP-IIP/HEA_compression/LMP_Files/110/HEA_II.lmp (written by ASE) 

3920 	 atoms 
5  atom types
0.0      61.772848400000001  xlo xhi
0.0              30.8864242  ylo yhi
0.0      31.199999999999999  zlo zhi


Atoms 

     1   2                       0                       0                       0
     2   1      2.2061731600000001      2.2061731600000001                       0
     3   2      4.4123463100000002                       0                       0
     4   2      6.6185194699999998      2.2061731600000001                       0
     5   2      8.8246926299999995                       0                       0
     6   2             11.03086579      2.2061731600000001                       0
     7   1             13.23703894                       0                       0
     8   2              15.4432121      2.2061731600000001                       0
     9   2      17.649385259999999                       0                       0
    10   1      19.855558420000001      2.2061731600000001                       0
    11   1      22.061731569999999                       0                       0
    12   1      24.267904730000001      2.2061731600000001                       0
    13   2             26.47407789                       0                       0
    14   1      28.680251040000002      2.2061731600000001                       0
    15   2              30.8864242                       0                       0
    16   2      33.092597359999999      2.2061731600000001                       0
    17   2      35.298770519999998                       0                       0
    18   1      37.504943670000003      2.2061731600000001                       0
    19   1      39.711116830000002                       0                       0
    20   2             41.91728999      2.2061731600000001                       0
    21   2      44.123463149999999                       0                       0
    22   2      46.329636299999997      2.2061731600000001                       0
    23   2      48.535809460000003                       0                       0
    24   1      50.741982620000002      2.2061731600000001                       0
    25   1             52.94815578                       0                       0
    26   1      55.154328929999998      2.2061731600000001                       0
    27   2      57.360502089999997                       0                       0
    28   1      59.566675250000003      2.2061731600000001                       0
    29   2                       0      4.4123463100000002                       0
    30   1      2.2061731600000001      6.6185194699999998                       0
    31   2      4.4123463100000002      4.4123463100000002                       0
    32   1      6.6185194699999998      6.6185194699999998                       0
    33   2      8.8246926299999995      4.4123463100000002                       0
    34   2             11.03086579      6.6185194699999998                       0
    35   1             13.23703894      4.4123463100000002                       0
    36   2              15.4432121      6.6185194699999998                       0
    37   2      17.649385259999999      4.4123463100000002                       0
    38   2      19.855558420000001      6.6185194699999998                       0
    39   2      22.061731569999999      4.4123463100000002                       0
    40   1      24.267904730000001      6.6185194699999998                       0
    41   2             26.47407789      4.4123463100000002                       0
    42   2      28.680251040000002      6.6185194699999998                       0
    43   1              30.8864242      4.4123463100000002                       0
    44   1      33.092597359999999      6.6185194699999998                       0
    45   1      35.298770519999998      4.4123463100000002                       0
    46   1      37.504943670000003      6.6185194699999998                       0
    47   1      39.711116830000002      4.4123463100000002                       0
    48   1             41.91728999      6.6185194699999998                       0
    49   2      44.123463149999999      4.4123463100000002                       0
    50   1      46.329636299999997      6.6185194699999998                       0
    51   1      48.535809460000003      4.4123463100000002                       0
    52   2      50.741982620000002      6.6185194699999998                       0
    53   1             52.94815578      4.4123463100000002                       0
    54   1      55.154328929999998      6.6185194699999998                       0
    55   1      57.360502089999997      4.4123463100000002                       0
    56   2      59.566675250000003      6.6185194699999998                       0
    57   1                       0      8.8246926299999995                       0
    58   1      2.2061731600000001             11.03086579                       0
    59   2      4.4123463100000002      8.8246926299999995                       0
    60   2      6.6185194699999998             11.03086579                       0
    61   2      8.8246926299999995      8.8246926299999995                       0
    62   2             11.03086579             11.03086579                       0
    63   2             13.23703894      8.8246926299999995                       0
    64   2              15.4432121             11.03086579                       0
    65   1      17.649385259999999      8.8246926299999995                       0
    66   1      19.855558420000001             11.03086579                       0
    67   1      22.061731569999999      8.8246926299999995                       0
    68   1      24.267904730000001             11.03086579                       0
    69   1             26.47407789      8.8246926299999995                       0
    70   1      28.680251040000002             11.03086579                       0
    71   1              30.8864242      8.8246926299999995                       0
    72   2      33.092597359999999             11.03086579                       0
    73   1      35.298770519999998      8.8246926299999995                       0
    74   2      37.504943670000003             11.03086579                       0
    75   2      39.711116830000002      8.8246926299999995                       0
    76   1             41.91728999             11.03086579                       0
    77   1      44.123463149999999      8.8246926299999995                       0
    78   1      46.329636299999997             11.03086579                       0
    79   1      48.535809460000003      8.8246926299999995                       0
    80   2      50.741982620000002             11.03086579                       0
    81   2             52.94815578      8.8246926299999995                       0
    82   1      55.154328929999998             11.03086579                       0
    83   1      57.360502089999997      8.8246926299999995                       0
    84   1      59.566675250000003             11.03086579                       0
    85   2                       0             13.23703894                       0
    86   2      2.2061731600000001              15.4432121                       0
    87   2      4.4123463100000002             13.23703894                       0
    88   1      6.6185194699999998              15.4432121                       0
    89   1      8.8246926299999995             13.23703894                       0
    90   1             11.03086579              15.4432121                       0
    91   1             13.23703894             13.23703894                       0
    92   1              15.4432121              15.4432121                       0
    93   1      17.649385259999999             13.23703894                       0
    94   1      19.855558420000001              15.4432121                       0
    95   1      22.061731569999999             13.23703894                       0
    96   2      24.267904730000001              15.4432121                       0
    97   1             26.47407789             13.23703894                       0
    98   1      28.680251040000002              15.4432121                       0
    99   1              30.8864242             13.23703894                       0
   100   1      33.092597359999999              15.4432121                       0
   101   1      35.298770519999998             13.23703894                       0
   102   2      37.504943670000003              15.4432121                       0
   103   2      39.711116830000002             13.23703894                       0
   104   1             41.91728999              15.4432121                       0
   105   1      44.123463149999999             13.23703894                       0
   106   1      46.329636299999997              15.4432121                       0
   107   1      48.535809460000003             13.23703894                       0
   108   2      50.741982620000002              15.4432121                       0
   109   2             52.94815578             13.23703894                       0
   110   1      55.154328929999998              15.4432121                       0
   111   1      57.360502089999997             13.23703894                       0
   112   2      59.566675250000003              15.4432121                       0
   113   2                       0      17.649385259999999                       0
   114   1      2.2061731600000001      19.855558420000001                       0
   115   2      4.4123463100000002      17.649385259999999                       0
   116   1      6.6185194699999998      19.855558420000001                       0
   117   2      8.8246926299999995      17.649385259999999                       0
   118   1             11.03086579      19.855558420000001                       0
   119   1             13.23703894      17.649385259999999                       0
   120   1              15.4432121      19.855558420000001                       0
   121   2      17.649385259999999      17.649385259999999                       0
   122   1      19.855558420000001      19.855558420000001                       0
   123   2      22.061731569999999      17.649385259999999                       0
   124   1      24.267904730000001      19.855558420000001                       0
   125   2             26.47407789      17.649385259999999                       0
   126   1      28.680251040000002      19.855558420000001                       0
   127   2              30.8864242      17.649385259999999                       0
   128   1      33.092597359999999      19.855558420000001                       0
   129   1      35.298770519999998      17.649385259999999                       0
   130   2      37.504943670000003      19.855558420000001                       0
   131   2      39.711116830000002      17.649385259999999                       0
   132   2             41.91728999      19.855558420000001                       0
   133   1      44.123463149999999      17.649385259999999                       0
   134   2      46.329636299999997      19.855558420000001                       0
   135   1      48.535809460000003      17.649385259999999                       0
   136   1      50.741982620000002      19.855558420000001                       0
   137   2             52.94815578      17.649385259999999                       0
   138   2      55.154328929999998      19.855558420000001                       0
   139   2      57.360502089999997      17.649385259999999                       0
   140   2      59.566675250000003      19.855558420000001                       0
   141   2                       0      22.061731569999999                       0
   142   2      2.2061731600000001      24.267904730000001                       0
   143   1      4.4123463100000002      22.061731569999999                       0
   144   2      6.6185194699999998      24.267904730000001                       0
   145   2      8.8246926299999995      22.061731569999999                       0
   146   1             11.03086579      24.267904730000001                       0
   147   1             13.23703894      22.061731569999999                       0
   148   1              15.4432121      24.267904730000001                       0
   149   2      17.649385259999999      22.061731569999999                       0
   150   2      19.855558420000001      24.267904730000001                       0
   151   1      22.061731569999999      22.061731569999999                       0
   152   2      24.267904730000001      24.267904730000001                       0
   153   2             26.47407789      22.061731569999999                       0
   154   2      28.680251040000002      24.267904730000001                       0
   155   1              30.8864242      22.061731569999999                       0
   156   1      33.092597359999999      24.267904730000001                       0
   157   1      35.298770519999998      22.061731569999999                       0
   158   2      37.504943670000003      24.267904730000001                       0
   159   2      39.711116830000002      22.061731569999999                       0
   160   2             41.91728999      24.267904730000001                       0
   161   1      44.123463149999999      22.061731569999999                       0
   162   1      46.329636299999997      24.267904730000001                       0
   163   2      48.535809460000003      22.061731569999999                       0
   164   1      50.741982620000002      24.267904730000001                       0
   165   2             52.94815578      22.061731569999999                       0
   166   2      55.154328929999998      24.267904730000001                       0
   167   1      57.360502089999997      22.061731569999999                       0
   168   1      59.566675250000003      24.267904730000001                       0
   169   2                       0             26.47407789                       0
   170   2      2.2061731600000001      28.680251040000002                       0
   171   2      4.4123463100000002             26.47407789                       0
   172   2      6.6185194699999998      28.680251040000002                       0
   173   1      8.8246926299999995             26.47407789                       0
   174   2             11.03086579      28.680251040000002                       0
   175   1             13.23703894             26.47407789                       0
   176   2              15.4432121      28.680251040000002                       0
   177   2      17.649385259999999             26.47407789                       0
   178   2      19.855558420000001      28.680251040000002                       0
   179   2      22.061731569999999             26.47407789                       0
   180   2      24.267904730000001      28.680251040000002                       0
   181   2             26.47407789             26.47407789                       0
   182   1      28.680251040000002      28.680251040000002                       0
   183   1              30.8864242             26.47407789                       0
   184   1      33.092597359999999      28.680251040000002                       0
   185   1      35.298770519999998             26.47407789                       0
   186   1      37.504943670000003      28.680251040000002                       0
   187   1      39.711116830000002             26.47407789                       0
   188   1             41.91728999      28.680251040000002                       0
   189   1      44.123463149999999             26.47407789                       0
   190   1      46.329636299999997      28.680251040000002                       0
   191   2      48.535809460000003             26.47407789                       0
   192   1      50.741982620000002      28.680251040000002                       0
   193   2             52.94815578             26.47407789                       0
   194   1      55.154328929999998      28.680251040000002                       0
   195   1      57.360502089999997             26.47407789                       0
   196   1      59.566675250000003      28.680251040000002                       0
   197   2                       0                       0      3.1200000000000001
   198   1      2.2061731600000001      2.2061731600000001      3.1200000000000001
   199   2      4.4123463100000002                       0      3.1200000000000001
   200   1      6.6185194699999998      2.2061731600000001      3.1200000000000001
   201   1      8.8246926299999995                       0      3.1200000000000001
   202   2             11.03086579      2.2061731600000001      3.1200000000000001
   203   1             13.23703894                       0      3.1200000000000001
   204   2              15.4432121      2.2061731600000001      3.1200000000000001
   205   2      17.649385259999999                       0      3.1200000000000001
   206   2      19.855558420000001      2.2061731600000001      3.1200000000000001
   207   2      22.061731569999999                       0      3.1200000000000001
   208   1      24.267904730000001      2.2061731600000001      3.1200000000000001
   209   1             26.47407789                       0      3.1200000000000001
   210   2      28.680251040000002      2.2061731600000001      3.1200000000000001
   211   1              30.8864242                       0      3.1200000000000001
   212   2      33.092597359999999      2.2061731600000001      3.1200000000000001
   213   1      35.298770519999998                       0      3.1200000000000001
   214   2      37.504943670000003      2.2061731600000001      3.1200000000000001
   215   1      39.711116830000002                       0      3.1200000000000001
   216   2             41.91728999      2.2061731600000001      3.1200000000000001
   217   1      44.123463149999999                       0      3.1200000000000001
   218   2      46.329636299999997      2.2061731600000001      3.1200000000000001
   219   2      48.535809460000003                       0      3.1200000000000001
   220   2      50.741982620000002      2.2061731600000001      3.1200000000000001
   221   1             52.94815578                       0      3.1200000000000001
   222   1      55.154328929999998      2.2061731600000001      3.1200000000000001
   223   2      57.360502089999997                       0      3.1200000000000001
   224   1      59.566675250000003      2.2061731600000001      3.1200000000000001
   225   1                       0      4.4123463100000002      3.1200000000000001
   226   1      2.2061731600000001      6.6185194699999998      3.1200000000000001
   227   2      4.4123463100000002      4.4123463100000002      3.1200000000000001
   228   1      6.6185194699999998      6.6185194699999998      3.1200000000000001
   229   1      8.8246926299999995      4.4123463100000002      3.1200000000000001
   230   2             11.03086579      6.6185194699999998      3.1200000000000001
   231   2             13.23703894      4.4123463100000002      3.1200000000000001
   232   2              15.4432121      6.6185194699999998      3.1200000000000001
   233   2      17.649385259999999      4.4123463100000002      3.1200000000000001
   234   1      19.855558420000001      6.6185194699999998      3.1200000000000001
   235   1      22.061731569999999      4.4123463100000002      3.1200000000000001
   236   1      24.267904730000001      6.6185194699999998      3.1200000000000001
   237   1             26.47407789      4.4123463100000002      3.1200000000000001
   238   1      28.680251040000002      6.6185194699999998      3.1200000000000001
   239   1              30.8864242      4.4123463100000002      3.1200000000000001
   240   2      33.092597359999999      6.6185194699999998      3.1200000000000001
   241   2      35.298770519999998      4.4123463100000002      3.1200000000000001
   242   2      37.504943670000003      6.6185194699999998      3.1200000000000001
   243   1      39.711116830000002      4.4123463100000002      3.1200000000000001
   244   1             41.91728999      6.6185194699999998      3.1200000000000001
   245   1      44.123463149999999      4.4123463100000002      3.1200000000000001
   246   2      46.329636299999997      6.6185194699999998      3.1200000000000001
   247   2      48.535809460000003      4.4123463100000002      3.1200000000000001
   248   1      50.741982620000002      6.6185194699999998      3.1200000000000001
   249   2             52.94815578      4.4123463100000002      3.1200000000000001
   250   2      55.154328929999998      6.6185194699999998      3.1200000000000001
   251   1      57.360502089999997      4.4123463100000002      3.1200000000000001
   252   2      59.566675250000003      6.6185194699999998      3.1200000000000001
   253   2                       0      8.8246926299999995      3.1200000000000001
   254   2      2.2061731600000001             11.03086579      3.1200000000000001
   255   2      4.4123463100000002      8.8246926299999995      3.1200000000000001
   256   1      6.6185194699999998             11.03086579      3.1200000000000001
   257   2      8.8246926299999995      8.8246926299999995      3.1200000000000001
   258   2             11.03086579             11.03086579      3.1200000000000001
   259   1             13.23703894      8.8246926299999995      3.1200000000000001
   260   1              15.4432121             11.03086579      3.1200000000000001
   261   1      17.649385259999999      8.8246926299999995      3.1200000000000001
   262   1      19.855558420000001             11.03086579      3.1200000000000001
   263   1      22.061731569999999      8.8246926299999995      3.1200000000000001
   264   2      24.267904730000001             11.03086579      3.1200000000000001
   265   2             26.47407789      8.8246926299999995      3.1200000000000001
   266   1      28.680251040000002             11.03086579      3.1200000000000001
   267   1              30.8864242      8.8246926299999995      3.1200000000000001
   268   1      33.092597359999999             11.03086579      3.1200000000000001
   269   2      35.298770519999998      8.8246926299999995      3.1200000000000001
   270   1      37.504943670000003             11.03086579      3.1200000000000001
   271   1      39.711116830000002      8.8246926299999995      3.1200000000000001
   272   1             41.91728999             11.03086579      3.1200000000000001
   273   1      44.123463149999999      8.8246926299999995      3.1200000000000001
   274   2      46.329636299999997             11.03086579      3.1200000000000001
   275   1      48.535809460000003      8.8246926299999995      3.1200000000000001
   276   2      50.741982620000002             11.03086579      3.1200000000000001
   277   1             52.94815578      8.8246926299999995      3.1200000000000001
   278   2      55.154328929999998             11.03086579      3.1200000000000001
   279   1      57.360502089999997      8.8246926299999995      3.1200000000000001
   280   1      59.566675250000003             11.03086579      3.1200000000000001
   281   1                       0             13.23703894      3.1200000000000001
   282   1      2.2061731600000001              15.4432121      3.1200000000000001
   283   1      4.4123463100000002             13.23703894      3.1200000000000001
   284   2      6.6185194699999998              15.4432121      3.1200000000000001
   285   2      8.8246926299999995             13.23703894      3.1200000000000001
   286   1             11.03086579              15.4432121      3.1200000000000001
   287   2             13.23703894             13.23703894      3.1200000000000001
   288   2              15.4432121              15.4432121      3.1200000000000001
   289   2      17.649385259999999             13.23703894      3.1200000000000001
   290   2      19.855558420000001              15.4432121      3.1200000000000001
   291   2      22.061731569999999             13.23703894      3.1200000000000001
   292   1      24.267904730000001              15.4432121      3.1200000000000001
   293   1             26.47407789             13.23703894      3.1200000000000001
   294   2      28.680251040000002              15.4432121      3.1200000000000001
   295   1              30.8864242             13.23703894      3.1200000000000001
   296   2      33.092597359999999              15.4432121      3.1200000000000001
   297   1      35.298770519999998             13.23703894      3.1200000000000001
   298   1      37.504943670000003              15.4432121      3.1200000000000001
   299   2      39.711116830000002             13.23703894      3.1200000000000001
   300   1             41.91728999              15.4432121      3.1200000000000001
   301   2      44.123463149999999             13.23703894      3.1200000000000001
   302   2      46.329636299999997              15.4432121      3.1200000000000001
   303   1      48.535809460000003             13.23703894      3.1200000000000001
   304   2      50.741982620000002              15.4432121      3.1200000000000001
   305   2             52.94815578             13.23703894      3.1200000000000001
   306   2      55.154328929999998              15.4432121      3.1200000000000001
   307   1      57.360502089999997             13.23703894      3.1200000000000001
   308   1      59.566675250000003              15.4432121      3.1200000000000001
   309   1                       0      17.649385259999999      3.1200000000000001
   310   2      2.2061731600000001      19.855558420000001      3.1200000000000001
   311   2      4.4123463100000002      17.649385259999999      3.1200000000000001
   312   2      6.6185194699999998      19.855558420000001      3.1200000000000001
   313   2      8.8246926299999995      17.649385259999999      3.1200000000000001
   314   1             11.03086579      19.855558420000001      3.1200000000000001
   315   2             13.23703894      17.649385259999999      3.1200000000000001
   316   1              15.4432121      19.855558420000001      3.1200000000000001
   317   2      17.649385259999999      17.649385259999999      3.1200000000000001
   318   1      19.855558420000001      19.855558420000001      3.1200000000000001
   319   1      22.061731569999999      17.649385259999999      3.1200000000000001
   320   1      24.267904730000001      19.855558420000001      3.1200000000000001
   321   2             26.47407789      17.649385259999999      3.1200000000000001
   322   2      28.680251040000002      19.855558420000001      3.1200000000000001
   323   2              30.8864242      17.649385259999999      3.1200000000000001
   324   1      33.092597359999999      19.855558420000001      3.1200000000000001
   325   1      35.298770519999998      17.649385259999999      3.1200000000000001
   326   1      37.504943670000003      19.855558420000001      3.1200000000000001
   327   2      39.711116830000002      17.649385259999999      3.1200000000000001
   328   1             41.91728999      19.855558420000001      3.1200000000000001
   329   2      44.123463149999999      17.649385259999999      3.1200000000000001
   330   2      46.329636299999997      19.855558420000001      3.1200000000000001
   331   1      48.535809460000003      17.649385259999999      3.1200000000000001
   332   2      50.741982620000002      19.855558420000001      3.1200000000000001
   333   2             52.94815578      17.649385259999999      3.1200000000000001
   334   2      55.154328929999998      19.855558420000001      3.1200000000000001
   335   2      57.360502089999997      17.649385259999999      3.1200000000000001
   336   1      59.566675250000003      19.855558420000001      3.1200000000000001
   337   1                       0      22.061731569999999      3.1200000000000001
   338   2      2.2061731600000001      24.267904730000001      3.1200000000000001
   339   1      4.4123463100000002      22.061731569999999      3.1200000000000001
   340   1      6.6185194699999998      24.267904730000001      3.1200000000000001
   341   1      8.8246926299999995      22.061731569999999      3.1200000000000001
   342   2             11.03086579      24.267904730000001      3.1200000000000001
   343   2             13.23703894      22.061731569999999      3.1200000000000001
   344   2              15.4432121      24.267904730000001      3.1200000000000001
   345   2      17.649385259999999      22.061731569999999      3.1200000000000001
   346   2      19.855558420000001      24.267904730000001      3.1200000000000001
   347   2      22.061731569999999      22.061731569999999      3.1200000000000001
   348   1      24.267904730000001      24.267904730000001      3.1200000000000001
   349   1             26.47407789      22.061731569999999      3.1200000000000001
   350   2      28.680251040000002      24.267904730000001      3.1200000000000001
   351   1              30.8864242      22.061731569999999      3.1200000000000001
   352   2      33.092597359999999      24.267904730000001      3.1200000000000001
   353   2      35.298770519999998      22.061731569999999      3.1200000000000001
   354   2      37.504943670000003      24.267904730000001      3.1200000000000001
   355   1      39.711116830000002      22.061731569999999      3.1200000000000001
   356   1             41.91728999      24.267904730000001      3.1200000000000001
   357   1      44.123463149999999      22.061731569999999      3.1200000000000001
   358   2      46.329636299999997      24.267904730000001      3.1200000000000001