/home/sez26/TIGP-IIP/HEA_compression/LMP_Files/110/HEA_II.lmp (written by ASE) 

3920 	 atoms 
5  atom types
0.0      61.772848400000001  xlo xhi
0.0              30.8864242  ylo yhi
0.0      31.199999999999999  zlo zhi


Atoms 

     1   1                       0                       0                       0
     2   1      2.2061731600000001      2.2061731600000001                       0
     3   2      4.4123463100000002                       0                       0
     4   2      6.6185194699999998      2.2061731600000001                       0
     5   1      8.8246926299999995                       0                       0
     6   1             11.03086579      2.2061731600000001                       0
     7   2             13.23703894                       0                       0
     8   1              15.4432121      2.2061731600000001                       0
     9   2      17.649385259999999                       0                       0
    10   2      19.855558420000001      2.2061731600000001                       0
    11   2      22.061731569999999                       0                       0
    12   1      24.267904730000001      2.2061731600000001                       0
    13   2             26.47407789                       0                       0
    14   2      28.680251040000002      2.2061731600000001                       0
    15   2              30.8864242                       0                       0
    16   2      33.092597359999999      2.2061731600000001                       0
    17   2      35.298770519999998                       0                       0
    18   2      37.504943670000003      2.2061731600000001                       0
    19   1      39.711116830000002                       0                       0
    20   1             41.91728999      2.2061731600000001                       0
    21   2      44.123463149999999                       0                       0
    22   2      46.329636299999997      2.2061731600000001                       0
    23   2      48.535809460000003                       0                       0
    24   2      50.741982620000002      2.2061731600000001                       0
    25   1             52.94815578                       0                       0
    26   2      55.154328929999998      2.2061731600000001                       0
    27   2      57.360502089999997                       0                       0
    28   1      59.566675250000003      2.2061731600000001                       0
    29   1                       0      4.4123463100000002                       0
    30   2      2.2061731600000001      6.6185194699999998                       0
    31   1      4.4123463100000002      4.4123463100000002                       0
    32   2      6.6185194699999998      6.6185194699999998                       0
    33   1      8.8246926299999995      4.4123463100000002                       0
    34   2             11.03086579      6.6185194699999998                       0
    35   2             13.23703894      4.4123463100000002                       0
    36   2              15.4432121      6.6185194699999998                       0
    37   1      17.649385259999999      4.4123463100000002                       0
    38   1      19.855558420000001      6.6185194699999998                       0
    39   1      22.061731569999999      4.4123463100000002                       0
    40   2      24.267904730000001      6.6185194699999998                       0
    41   1             26.47407789      4.4123463100000002                       0
    42   2      28.680251040000002      6.6185194699999998                       0
    43   2              30.8864242      4.4123463100000002                       0
    44   2      33.092597359999999      6.6185194699999998                       0
    45   1      35.298770519999998      4.4123463100000002                       0
    46   2      37.504943670000003      6.6185194699999998                       0
    47   2      39.711116830000002      4.4123463100000002                       0
    48   2             41.91728999      6.6185194699999998                       0
    49   1      44.123463149999999      4.4123463100000002                       0
    50   2      46.329636299999997      6.6185194699999998                       0
    51   2      48.535809460000003      4.4123463100000002                       0
    52   2      50.741982620000002      6.6185194699999998                       0
    53   1             52.94815578      4.4123463100000002                       0
    54   1      55.154328929999998      6.6185194699999998                       0
    55   1      57.360502089999997      4.4123463100000002                       0
    56   2      59.566675250000003      6.6185194699999998                       0
    57   2                       0      8.8246926299999995                       0
    58   1      2.2061731600000001             11.03086579                       0
    59   1      4.4123463100000002      8.8246926299999995                       0
    60   2      6.6185194699999998             11.03086579                       0
    61   1      8.8246926299999995      8.8246926299999995                       0
    62   2             11.03086579             11.03086579                       0
    63   1             13.23703894      8.8246926299999995                       0
    64   2              15.4432121             11.03086579                       0
    65   2      17.649385259999999      8.8246926299999995                       0
    66   1      19.855558420000001             11.03086579                       0
    67   2      22.061731569999999      8.8246926299999995                       0
    68   2      24.267904730000001             11.03086579                       0
    69   1             26.47407789      8.8246926299999995                       0
    70   2      28.680251040000002             11.03086579                       0
    71   1              30.8864242      8.8246926299999995                       0
    72   1      33.092597359999999             11.03086579                       0
    73   1      35.298770519999998      8.8246926299999995                       0
    74   2      37.504943670000003             11.03086579                       0
    75   2      39.711116830000002      8.8246926299999995                       0
    76   1             41.91728999             11.03086579                       0
    77   2      44.123463149999999      8.8246926299999995                       0
    78   1      46.329636299999997             11.03086579                       0
    79   1      48.535809460000003      8.8246926299999995                       0
    80   2      50.741982620000002             11.03086579                       0
    81   2             52.94815578      8.8246926299999995                       0
    82   2      55.154328929999998             11.03086579                       0
    83   2      57.360502089999997      8.8246926299999995                       0
    84   1      59.566675250000003             11.03086579                       0
    85   2                       0             13.23703894                       0
    86   2      2.2061731600000001              15.4432121                       0
    87   2      4.4123463100000002             13.23703894                       0
    88   2      6.6185194699999998              15.4432121                       0
    89   2      8.8246926299999995             13.23703894                       0
    90   2             11.03086579              15.4432121                       0
    91   1             13.23703894             13.23703894                       0
    92   2              15.4432121              15.4432121                       0
    93   2      17.649385259999999             13.23703894                       0
    94   2      19.855558420000001              15.4432121                       0
    95   1      22.061731569999999             13.23703894                       0
    96   2      24.267904730000001              15.4432121                       0
    97   2             26.47407789             13.23703894                       0
    98   2      28.680251040000002              15.4432121                       0
    99   2              30.8864242             13.23703894                       0
   100   1      33.092597359999999              15.4432121                       0
   101   1      35.298770519999998             13.23703894                       0
   102   2      37.504943670000003              15.4432121                       0
   103   2      39.711116830000002             13.23703894                       0
   104   1             41.91728999              15.4432121                       0
   105   2      44.123463149999999             13.23703894                       0
   106   1      46.329636299999997              15.4432121                       0
   107   2      48.535809460000003             13.23703894                       0
   108   2      50.741982620000002              15.4432121                       0
   109   1             52.94815578             13.23703894                       0
   110   2      55.154328929999998              15.4432121                       0
   111   1      57.360502089999997             13.23703894                       0
   112   1      59.566675250000003              15.4432121                       0
   113   2                       0      17.649385259999999                       0
   114   1      2.2061731600000001      19.855558420000001                       0
   115   1      4.4123463100000002      17.649385259999999                       0
   116   1      6.6185194699999998      19.855558420000001                       0
   117   2      8.8246926299999995      17.649385259999999                       0
   118   1             11.03086579      19.855558420000001                       0
   119   2             13.23703894      17.649385259999999                       0
   120   1              15.4432121      19.855558420000001                       0
   121   1      17.649385259999999      17.649385259999999                       0
   122   1      19.855558420000001      19.855558420000001                       0
   123   1      22.061731569999999      17.649385259999999                       0
   124   1      24.267904730000001      19.855558420000001                       0
   125   2             26.47407789      17.649385259999999                       0
   126   1      28.680251040000002      19.855558420000001                       0
   127   2              30.8864242      17.649385259999999                       0
   128   1      33.092597359999999      19.855558420000001                       0
   129   2      35.298770519999998      17.649385259999999                       0
   130   1      37.504943670000003      19.855558420000001                       0
   131   1      39.711116830000002      17.649385259999999                       0
   132   2             41.91728999      19.855558420000001                       0
   133   2      44.123463149999999      17.649385259999999                       0
   134   1      46.329636299999997      19.855558420000001                       0
   135   2      48.535809460000003      17.649385259999999                       0
   136   1      50.741982620000002      19.855558420000001                       0
   137   1             52.94815578      17.649385259999999                       0
   138   1      55.154328929999998      19.855558420000001                       0
   139   2      57.360502089999997      17.649385259999999                       0
   140   1      59.566675250000003      19.855558420000001                       0
   141   2                       0      22.061731569999999                       0
   142   2      2.2061731600000001      24.267904730000001                       0
   143   1      4.4123463100000002      22.061731569999999                       0
   144   2      6.6185194699999998      24.267904730000001                       0
   145   1      8.8246926299999995      22.061731569999999                       0
   146   2             11.03086579      24.267904730000001                       0
   147   1             13.23703894      22.061731569999999                       0
   148   1              15.4432121      24.267904730000001                       0
   149   1      17.649385259999999      22.061731569999999                       0
   150   2      19.855558420000001      24.267904730000001                       0
   151   1      22.061731569999999      22.061731569999999                       0
   152   2      24.267904730000001      24.267904730000001                       0
   153   1             26.47407789      22.061731569999999                       0
   154   1      28.680251040000002      24.267904730000001                       0
   155   1              30.8864242      22.061731569999999                       0
   156   2      33.092597359999999      24.267904730000001                       0
   157   2      35.298770519999998      22.061731569999999                       0
   158   1      37.504943670000003      24.267904730000001                       0
   159   2      39.711116830000002      22.061731569999999                       0
   160   2             41.91728999      24.267904730000001                       0
   161   1      44.123463149999999      22.061731569999999                       0
   162   2      46.329636299999997      24.267904730000001                       0
   163   2      48.535809460000003      22.061731569999999                       0
   164   1      50.741982620000002      24.267904730000001                       0
   165   2             52.94815578      22.061731569999999                       0
   166   2      55.154328929999998      24.267904730000001                       0
   167   2      57.360502089999997      22.061731569999999                       0
   168   1      59.566675250000003      24.267904730000001                       0
   169   1                       0             26.47407789                       0
   170   2      2.2061731600000001      28.680251040000002                       0
   171   1      4.4123463100000002             26.47407789                       0
   172   1      6.6185194699999998      28.680251040000002                       0
   173   2      8.8246926299999995             26.47407789                       0
   174   1             11.03086579      28.680251040000002                       0
   175   1             13.23703894             26.47407789                       0
   176   1              15.4432121      28.680251040000002                       0
   177   1      17.649385259999999             26.47407789                       0
   178   1      19.855558420000001      28.680251040000002                       0
   179   1      22.061731569999999             26.47407789                       0
   180   2      24.267904730000001      28.680251040000002                       0
   181   1             26.47407789             26.47407789                       0
   182   2      28.680251040000002      28.680251040000002                       0
   183   1              30.8864242             26.47407789                       0
   184   1      33.092597359999999      28.680251040000002                       0
   185   2      35.298770519999998             26.47407789                       0
   186   2      37.504943670000003      28.680251040000002                       0
   187   2      39.711116830000002             26.47407789                       0
   188   2             41.91728999      28.680251040000002                       0
   189   1      44.123463149999999             26.47407789                       0
   190   2      46.329636299999997      28.680251040000002                       0
   191   1      48.535809460000003             26.47407789                       0
   192   2      50.741982620000002      28.680251040000002                       0
   193   1             52.94815578             26.47407789                       0
   194   1      55.154328929999998      28.680251040000002                       0
   195   1      57.360502089999997             26.47407789                       0
   196   1      59.566675250000003      28.680251040000002                       0
   197   2                       0                       0      3.1200000000000001
   198   1      2.2061731600000001      2.2061731600000001      3.1200000000000001
   199   1      4.4123463100000002                       0      3.1200000000000001
   200   1      6.6185194699999998      2.2061731600000001      3.1200000000000001
   201   1      8.8246926299999995                       0      3.1200000000000001
   202   1             11.03086579      2.2061731600000001      3.1200000000000001
   203   2             13.23703894                       0      3.1200000000000001
   204   2              15.4432121      2.2061731600000001      3.1200000000000001
   205   1      17.649385259999999                       0      3.1200000000000001
   206   1      19.855558420000001      2.2061731600000001      3.1200000000000001
   207   1      22.061731569999999                       0      3.1200000000000001
   208   2      24.267904730000001      2.2061731600000001      3.1200000000000001
   209   1             26.47407789                       0      3.1200000000000001
   210   2      28.680251040000002      2.2061731600000001      3.1200000000000001
   211   2              30.8864242                       0      3.1200000000000001
   212   1      33.092597359999999      2.2061731600000001      3.1200000000000001
   213   2      35.298770519999998                       0      3.1200000000000001
   214   1      37.504943670000003      2.2061731600000001      3.1200000000000001
   215   2      39.711116830000002                       0      3.1200000000000001
   216   1             41.91728999      2.2061731600000001      3.1200000000000001
   217   1      44.123463149999999                       0      3.1200000000000001
   218   2      46.329636299999997      2.2061731600000001      3.1200000000000001
   219   2      48.535809460000003                       0      3.1200000000000001
   220   1      50.741982620000002      2.2061731600000001      3.1200000000000001
   221   2             52.94815578                       0      3.1200000000000001
   222   2      55.154328929999998      2.2061731600000001      3.1200000000000001
   223   1      57.360502089999997                       0      3.1200000000000001
   224   1      59.566675250000003      2.2061731600000001      3.1200000000000001
   225   1                       0      4.4123463100000002      3.1200000000000001
   226   2      2.2061731600000001      6.6185194699999998      3.1200000000000001
   227   1      4.4123463100000002      4.4123463100000002      3.1200000000000001
   228   2      6.6185194699999998      6.6185194699999998      3.1200000000000001
   229   2      8.8246926299999995      4.4123463100000002      3.1200000000000001
   230   1             11.03086579      6.6185194699999998      3.1200000000000001
   231   2             13.23703894      4.4123463100000002      3.1200000000000001
   232   1              15.4432121      6.6185194699999998      3.1200000000000001
   233   2      17.649385259999999      4.4123463100000002      3.1200000000000001
   234   2      19.855558420000001      6.6185194699999998      3.1200000000000001
   235   2      22.061731569999999      4.4123463100000002      3.1200000000000001
   236   1      24.267904730000001      6.6185194699999998      3.1200000000000001
   237   2             26.47407789      4.4123463100000002      3.1200000000000001
   238   1      28.680251040000002      6.6185194699999998      3.1200000000000001
   239   1              30.8864242      4.4123463100000002      3.1200000000000001
   240   2      33.092597359999999      6.6185194699999998      3.1200000000000001
   241   2      35.298770519999998      4.4123463100000002      3.1200000000000001
   242   1      37.504943670000003      6.6185194699999998      3.1200000000000001
   243   1      39.711116830000002      4.4123463100000002      3.1200000000000001
   244   1             41.91728999      6.6185194699999998      3.1200000000000001
   245   2      44.123463149999999      4.4123463100000002      3.1200000000000001
   246   1      46.329636299999997      6.6185194699999998      3.1200000000000001
   247   2      48.535809460000003      4.4123463100000002      3.1200000000000001
   248   1      50.741982620000002      6.6185194699999998      3.1200000000000001
   249   2             52.94815578      4.4123463100000002      3.1200000000000001
   250   2      55.154328929999998      6.6185194699999998      3.1200000000000001
   251   2      57.360502089999997      4.4123463100000002      3.1200000000000001
   252   1      59.566675250000003      6.6185194699999998      3.1200000000000001
   253   1                       0      8.8246926299999995      3.1200000000000001
   254   2      2.2061731600000001             11.03086579      3.1200000000000001
   255   1      4.4123463100000002      8.8246926299999995      3.1200000000000001
   256   2      6.6185194699999998             11.03086579      3.1200000000000001
   257   1      8.8246926299999995      8.8246926299999995      3.1200000000000001
   258   2             11.03086579             11.03086579      3.1200000000000001
   259   2             13.23703894      8.8246926299999995      3.1200000000000001
   260   2              15.4432121             11.03086579      3.1200000000000001
   261   2      17.649385259999999      8.8246926299999995      3.1200000000000001
   262   2      19.855558420000001             11.03086579      3.1200000000000001
   263   1      22.061731569999999      8.8246926299999995      3.1200000000000001
   264   2      24.267904730000001             11.03086579      3.1200000000000001
   265   1             26.47407789      8.8246926299999995      3.1200000000000001
   266   1      28.680251040000002             11.03086579      3.1200000000000001
   267   2              30.8864242      8.8246926299999995      3.1200000000000001
   268   1      33.092597359999999             11.03086579      3.1200000000000001
   269   2      35.298770519999998      8.8246926299999995      3.1200000000000001
   270   2      37.504943670000003             11.03086579      3.1200000000000001
   271   2      39.711116830000002      8.8246926299999995      3.1200000000000001
   272   1             41.91728999             11.03086579      3.1200000000000001
   273   1      44.123463149999999      8.8246926299999995      3.1200000000000001
   274   1      46.329636299999997             11.03086579      3.1200000000000001
   275   1      48.535809460000003      8.8246926299999995      3.1200000000000001
   276   2      50.741982620000002             11.03086579      3.1200000000000001
   277   1             52.94815578      8.8246926299999995      3.1200000000000001
   278   2      55.154328929999998             11.03086579      3.1200000000000001
   279   2      57.360502089999997      8.8246926299999995      3.1200000000000001
   280   2      59.566675250000003             11.03086579      3.1200000000000001
   281   2                       0             13.23703894      3.1200000000000001
   282   2      2.2061731600000001              15.4432121      3.1200000000000001
   283   2      4.4123463100000002             13.23703894      3.1200000000000001
   284   1      6.6185194699999998              15.4432121      3.1200000000000001
   285   1      8.8246926299999995             13.23703894      3.1200000000000001
   286   1             11.03086579              15.4432121      3.1200000000000001
   287   1             13.23703894             13.23703894      3.1200000000000001
   288   2              15.4432121              15.4432121      3.1200000000000001
   289   2      17.649385259999999             13.23703894      3.1200000000000001
   290   1      19.855558420000001              15.4432121      3.1200000000000001
   291   2      22.061731569999999             13.23703894      3.1200000000000001
   292   1      24.267904730000001              15.4432121      3.1200000000000001
   293   2             26.47407789             13.23703894      3.1200000000000001
   294   1      28.680251040000002              15.4432121      3.1200000000000001
   295   2              30.8864242             13.23703894      3.1200000000000001
   296   1      33.092597359999999              15.4432121      3.1200000000000001
   297   1      35.298770519999998             13.23703894      3.1200000000000001
   298   1      37.504943670000003              15.4432121      3.1200000000000001
   299   1      39.711116830000002             13.23703894      3.1200000000000001
   300   1             41.91728999              15.4432121      3.1200000000000001
   301   1      44.123463149999999             13.23703894      3.1200000000000001
   302   1      46.329636299999997              15.4432121      3.1200000000000001
   303   2      48.535809460000003             13.23703894      3.1200000000000001
   304   2      50.741982620000002              15.4432121      3.1200000000000001
   305   1             52.94815578             13.23703894      3.1200000000000001
   306   2      55.154328929999998              15.4432121      3.1200000000000001
   307   1      57.360502089999997             13.23703894      3.1200000000000001
   308   2      59.566675250000003              15.4432121      3.1200000000000001
   309   2                       0      17.649385259999999      3.1200000000000001
   310   1      2.2061731600000001      19.855558420000001      3.1200000000000001
   311   1      4.4123463100000002      17.649385259999999      3.1200000000000001
   312   2      6.6185194699999998      19.855558420000001      3.1200000000000001
   313   1      8.8246926299999995      17.649385259999999      3.1200000000000001
   314   1             11.03086579      19.855558420000001      3.1200000000000001
   315   1             13.23703894      17.649385259999999      3.1200000000000001
   316   2              15.4432121      19.855558420000001      3.1200000000000001
   317   2      17.649385259999999      17.649385259999999      3.1200000000000001
   318   1      19.855558420000001      19.855558420000001      3.1200000000000001
   319   1      22.061731569999999      17.649385259999999      3.1200000000000001
   320   1      24.267904730000001      19.855558420000001      3.1200000000000001
   321   1             26.47407789      17.649385259999999      3.1200000000000001
   322   1      28.680251040000002      19.855558420000001      3.1200000000000001
   323   1              30.8864242      17.649385259999999      3.1200000000000001
   324   2      33.092597359999999      19.855558420000001      3.1200000000000001
   325   2      35.298770519999998      17.649385259999999      3.1200000000000001
   326   2      37.504943670000003      19.855558420000001      3.1200000000000001
   327   2      39.711116830000002      17.649385259999999      3.1200000000000001
   328   1             41.91728999      19.855558420000001      3.1200000000000001
   329   2      44.123463149999999      17.649385259999999      3.1200000000000001
   330   1      46.329636299999997      19.855558420000001      3.1200000000000001
   331   2      48.535809460000003      17.649385259999999      3.1200000000000001
   332   2      50.741982620000002      19.855558420000001      3.1200000000000001
   333   1             52.94815578      17.649385259999999      3.1200000000000001
   334   2      55.154328929999998      19.855558420000001      3.1200000000000001
   335   2      57.360502089999997      17.649385259999999      3.1200000000000001
   336   2      59.566675250000003      19.855558420000001      3.1200000000000001
   337   1                       0      22.061731569999999      3.1200000000000001
   338   2      2.2061731600000001      24.267904730000001      3.1200000000000001
   339   2      4.4123463100000002      22.061731569999999      3.1200000000000001
   340   2      6.6185194699999998      24.267904730000001      3.1200000000000001
   341   1      8.8246926299999995      22.061731569999999      3.1200000000000001
   342   1             11.03086579      24.267904730000001      3.1200000000000001
   343   1             13.23703894      22.061731569999999      3.1200000000000001
   344   2              15.4432121      24.267904730000001      3.1200000000000001
   345   2      17.649385259999999      22.061731569999999      3.1200000000000001
   346   1      19.855558420000001      24.267904730000001      3.1200000000000001
   347   2      22.061731569999999      22.061731569999999      3.1200000000000001
   348   1      24.267904730000001      24.267904730000001      3.1200000000000001
   349   2             26.47407789      22.061731569999999      3.1200000000000001
   350   1      28.680251040000002      24.267904730000001      3.1200000000000001
   351   2              30.8864242      22.061731569999999      3.1200000000000001
   352   2      33.092597359999999      24.267904730000001      3.1200000000000001
   353   1      35.298770519999998      22.061731569999999      3.1200000000000001
   354   1      37.504943670000003      24.267904730000001      3.1200000000000001
   355   1      39.711116830000002      22.061731569999999      3.1200000000000001
   356   1             41.91728999      24.267904730000001      3.1200000000000001
   357   2      44.123463149999999      22.061731569999999      3.1200000000000001
   358   2      46.329636299999997      24.267904730000001      3.1200000000000001