/home/sez26/TIGP-IIP/HEA_dislocation/Screw/Var2/HEA_II.lmp (written by ASE) 

11664 	 atoms 
5  atom types
0.0      56.188800000000001  xlo xhi
0.0      56.188800000000001  ylo yhi
0.0      56.188800000000001  zlo zhi


Atoms 

     1   1                       0     -1.1699999999999999                       0
     2   1      3.1215999999999999     -1.1991759900000001                       0
     3   2      6.2431999999999999     -1.2317501399999999                       0
     4   2      9.3648000000000007             -1.26801941                       0
     5   2                 12.4864             -1.30819343                       0
     6   1      15.608000000000001     -1.3523251000000001                       0
     7   1      18.729600000000001     -1.4002304400000001                       0
     8   1      21.851199999999999               -1.451417                       0
     9   1      24.972799999999999     -1.5050516700000001                       0
    10   1                 28.0944      1.5600000000000001                       0
    11   2      31.216000000000001      1.5050516700000001                       0
    12   2      34.337600000000002                1.451417                       0
    13   2      37.459200000000003      1.4002304400000001                       0
    14   2      40.580800000000004      1.3523251000000001                       0
    15   2      43.702399999999997              1.30819343                       0
    16   1      46.823999999999998              1.26801941                       0
    17   2      49.945599999999999      1.2317501399999999                       0
    18   2                 53.0672      1.1991759900000001                       0
    19   2                       0                  1.9516                       0
    20   2      3.1215999999999999      1.9224240100000001                       0
    21   2      6.2431999999999999              1.88984986                       0
    22   1      9.3648000000000007              1.85358059                       0
    23   2                 12.4864      1.8134065699999999                       0
    24   2      15.608000000000001      1.7692749000000001                       0
    25   1      18.729600000000001      1.7213695600000001                       0
    26   2      21.851199999999999                1.670183                       0
    27   2      24.972799999999999      1.6165483300000001                       0
    28   1                 28.0944      4.6816000000000004                       0
    29   1      31.216000000000001      4.6266516700000002                       0
    30   1      34.337600000000002      4.5730170000000001                       0
    31   2      37.459200000000003      4.5218304399999996                       0
    32   1      40.580800000000004      4.4739250999999998                       0
    33   1      43.702399999999997      4.4297934300000001                       0
    34   1      46.823999999999998      4.3896194099999999                       0
    35   1      49.945599999999999      4.3533501399999999                       0
    36   1                 53.0672      4.3207759899999996                       0
    37   1                       0      5.0731999999999999                       0
    38   2      3.1215999999999999      5.0440240100000002                       0
    39   1      6.2431999999999999      5.0114498599999999                       0
    40   1      9.3648000000000007      4.9751805899999999                       0
    41   2                 12.4864      4.9350065699999996                       0
    42   2      15.608000000000001               4.8908749                       0
    43   1      18.729600000000001      4.8429695600000002                       0
    44   2      21.851199999999999      4.7917829999999997                       0
    45   2      24.972799999999999      4.7381483299999996                       0
    46   1                 28.0944      7.8032000000000004                       0
    47   2      31.216000000000001      7.7482516700000001                       0
    48   2      34.337600000000002                7.694617                       0
    49   2      37.459200000000003      7.6434304400000004                       0
    50   1      40.580800000000004      7.5955250999999997                       0
    51   2      43.702399999999997      7.5513934300000001                       0
    52   2      46.823999999999998      7.5112194099999998                       0
    53   1      49.945599999999999      7.4749501399999998                       0
    54   2                 53.0672      7.4423759900000004                       0
    55   1                       0      8.1948000000000008                       0
    56   2      3.1215999999999999      8.1656240100000002                       0
    57   1      6.2431999999999999      8.1330498599999999                       0
    58   2      9.3648000000000007      8.0967805899999998                       0
    59   1                 12.4864      8.0566065699999996                       0
    60   2      15.608000000000001      8.0124749000000008                       0
    61   1      18.729600000000001      7.9645695600000002                       0
    62   2      21.851199999999999      7.9133829999999996                       0
    63   1      24.972799999999999      7.8597483300000004                       0
    64   2                 28.0944      10.924799999999999                       0
    65   1      31.216000000000001      10.869851669999999                       0
    66   1      34.337600000000002               10.816217                       0
    67   1      37.459200000000003             10.76503044                       0
    68   2      40.580800000000004      10.717125100000001                       0
    69   2      43.702399999999997             10.67299343                       0
    70   2      46.823999999999998             10.63281941                       0
    71   2      49.945599999999999             10.59655014                       0
    72   1                 53.0672      10.563975989999999                       0
    73   2                       0                 11.3164                       0
    74   1      3.1215999999999999      11.287224009999999                       0
    75   1      6.2431999999999999      11.254649860000001                       0
    76   2      9.3648000000000007      11.218380590000001                       0
    77   1                 12.4864             11.17820657                       0
    78   2      15.608000000000001              11.1340749                       0
    79   1      18.729600000000001             11.08616956                       0
    80   2      21.851199999999999               11.034983                       0
    81   1      24.972799999999999      10.981348329999999                       0
    82   1                 28.0944                 14.0464                       0
    83   2      31.216000000000001             13.99145167                       0
    84   2      34.337600000000002      13.937817000000001                       0
    85   2      37.459200000000003      13.886630439999999                       0
    86   1      40.580800000000004              13.8387251                       0
    87   2      43.702399999999997      13.794593430000001                       0
    88   1      46.823999999999998      13.754419410000001                       0
    89   1      49.945599999999999      13.718150140000001                       0
    90   1                 53.0672             13.68557599                       0
    91   2                       0      14.438000000000001                       0
    92   2      3.1215999999999999             14.40882401                       0
    93   2      6.2431999999999999             14.37624986                       0
    94   2      9.3648000000000007             14.33998059                       0
    95   2                 12.4864      14.299806569999999                       0
    96   2      15.608000000000001      14.255674900000001                       0
    97   1      18.729600000000001      14.207769559999999                       0
    98   1      21.851199999999999      14.156582999999999                       0
    99   1      24.972799999999999             14.10294833                       0
   100   2                 28.0944      17.167999999999999                       0
   101   2      31.216000000000001      17.113051670000001                       0
   102   2      34.337600000000002               17.059417                       0
   103   2      37.459200000000003      17.008230439999998                       0
   104   1      40.580800000000004      16.960325099999999                       0
   105   1      43.702399999999997             16.91619343                       0
   106   1      46.823999999999998      16.876019410000001                       0
   107   2      49.945599999999999             16.83975014                       0
   108   2                 53.0672      16.807175990000001                       0
   109   1                       0                 17.5596                       0
   110   1      3.1215999999999999      17.530424010000001                       0
   111   1      6.2431999999999999      17.497849859999999                       0
   112   1      9.3648000000000007      17.461580590000001                       0
   113   1                 12.4864      17.421406569999998                       0
   114   2      15.608000000000001              17.3772749                       0
   115   2      18.729600000000001             17.32936956                       0
   116   1      21.851199999999999      17.278182999999999                       0
   117   2      24.972799999999999      17.224548330000001                       0
   118   2                 28.0944                 20.2896                       0
   119   1      31.216000000000001      20.234651670000002                       0
   120   2      34.337600000000002      20.181017000000001                       0
   121   2      37.459200000000003      20.129830439999999                       0
   122   1      40.580800000000004      20.081925099999999                       0
   123   1      43.702399999999997      20.037793430000001                       0
   124   2      46.823999999999998      19.997619409999999                       0
   125   2      49.945599999999999             19.96135014                       0
   126   1                 53.0672      19.928775989999998                       0
   127   1                       0                 20.6812                       0
   128   2      3.1215999999999999      20.652024010000002                       0
   129   2      6.2431999999999999             20.61944986                       0
   130   1      9.3648000000000007      20.583180590000001                       0
   131   1                 12.4864      20.543006569999999                       0
   132   1      15.608000000000001      20.498874900000001                       0
   133   2      18.729600000000001      20.450969560000001                       0
   134   2      21.851199999999999      20.399782999999999                       0
   135   1      24.972799999999999      20.346148329999998                       0
   136   2                 28.0944      23.411200000000001                       0
   137   2      31.216000000000001      23.356251669999999                       0
   138   2      34.337600000000002      23.302617000000001                       0
   139   2      37.459200000000003             23.25143044                       0
   140   1      40.580800000000004              23.2035251                       0
   141   2      43.702399999999997      23.159393430000002                       0
   142   1      46.823999999999998      23.119219409999999                       0
   143   1      49.945599999999999      23.082950140000001                       0
   144   1                 53.0672      23.050375989999999                       0
   145   2                       0      23.802800000000001                       0
   146   2      3.1215999999999999      23.773624009999999                       0
   147   1      6.2431999999999999             23.74104986                       0
   148   2      9.3648000000000007      23.704780589999999                       0
   149   1                 12.4864             23.66460657                       0
   150   1      15.608000000000001      23.620474900000001                       0
   151   1      18.729600000000001      23.572569560000002                       0
   152   2      21.851199999999999               23.521383                       0
   153   1      24.972799999999999      23.467748329999999                       0
   154   1                 28.0944      26.532800000000002                       0
   155   2      31.216000000000001             26.47785167                       0
   156   2      34.337600000000002      26.424216999999999                       0
   157   1      37.459200000000003      26.373030440000001                       0
   158   1      40.580800000000004      26.325125100000001                       0
   159   2      43.702399999999997      26.280993429999999                       0
   160   2      46.823999999999998             26.24081941                       0
   161   1      49.945599999999999      26.204550139999998                       0
   162   1                 53.0672             26.17197599                       0
   163   2                       0      26.924399999999999                       0
   164   2      3.1215999999999999             26.89522401                       0
   165   1      6.2431999999999999      26.862649860000001                       0
   166   1      9.3648000000000007      26.826380589999999                       0
   167   2                 12.4864      26.786206570000001                       0
   168   2      15.608000000000001      26.742074899999999                       0
   169   2      18.729600000000001      26.694169559999999                       0
   170   2      21.851199999999999      26.642983000000001                       0
   171   2      24.972799999999999             26.58934833                       0
   172   2                 28.0944      29.654399999999999                       0
   173   2      31.216000000000001      29.599451670000001                       0
   174   2      34.337600000000002               29.545817                       0
   175   1      37.459200000000003      29.494630440000002                       0
   176   1      40.580800000000004      29.446725099999998                       0
   177   2      43.702399999999997             29.40259343                       0
   178   1      46.823999999999998      29.362419410000001                       0
   179   1      49.945599999999999      29.326150139999999                       0
   180   1                 53.0672      29.293575990000001                       0
   181   1                       0      30.045999999999999                       0
   182   1      3.1215999999999999      30.016824010000001                       0
   183   1      6.2431999999999999      29.984249859999998                       0
   184   1      9.3648000000000007             29.94798059                       0
   185   2                 12.4864      29.907806570000002                       0
   186   2      15.608000000000001      29.863674899999999                       0
   187   1      18.729600000000001             29.81576956                       0
   188   1      21.851199999999999      29.764582999999998                       0
   189   1      24.972799999999999      29.710948330000001                       0
   190   2                 28.0944      32.776000000000003                       0
   191   2      31.216000000000001      32.721051670000001                       0
   192   2      34.337600000000002               32.667417                       0
   193   1      37.459200000000003      32.616230440000002                       0
   194   1      40.580800000000004      32.568325100000003                       0
   195   1      43.702399999999997      32.524193429999997                       0
   196   1      46.823999999999998      32.484019410000002                       0
   197   1      49.945599999999999      32.447750139999997                       0
   198   2                 53.0672      32.415175990000002                       0
   199   1                       0                 33.1676                       0
   200   2      3.1215999999999999      33.138424010000001                       0
   201   1      6.2431999999999999      33.105849859999999                       0
   202   1      9.3648000000000007      33.069580590000001                       0
   203   1                 12.4864      33.029406569999999                       0
   204   1      15.608000000000001              32.9852749                       0
   205   1      18.729600000000001             32.93736956                       0
   206   2      21.851199999999999      32.886183000000003                       0
   207   2      24.972799999999999      32.832548330000002                       0
   208   2                 28.0944      35.897599999999997                       0
   209   1      31.216000000000001      35.842651670000002                       0
   210   2      34.337600000000002      35.789017000000001                       0
   211   2      37.459200000000003      35.737830440000003                       0
   212   2      40.580800000000004      35.689925100000004                       0
   213   1      43.702399999999997      35.645793429999998                       0
   214   2      46.823999999999998      35.605619410000003                       0
   215   2      49.945599999999999      35.569350139999997                       0
   216   2                 53.0672      35.536775990000002                       0
   217   1                       0      36.289200000000001                       0
   218   2      3.1215999999999999      36.260024010000002                       0
   219   2      6.2431999999999999             36.22744986                       0
   220   2      9.3648000000000007      36.191180590000002                       0
   221   2                 12.4864             36.15100657                       0
   222   2      15.608000000000001      36.106874900000001                       0
   223   2      18.729600000000001      36.058969560000001                       0
   224   2      21.851199999999999      36.007783000000003                       0
   225   1      24.972799999999999      35.954148330000002                       0
   226   1                 28.0944      39.019199999999998                       0
   227   2      31.216000000000001      38.964251670000003                       0
   228   2      34.337600000000002      38.910617000000002                       0
   229   1      37.459200000000003      38.859430439999997                       0
   230   1      40.580800000000004      38.811525099999997                       0
   231   1      43.702399999999997      38.767393429999998                       0
   232   2      46.823999999999998      38.727219409999996                       0
   233   1      49.945599999999999      38.690950139999998                       0
   234   1                 53.0672      38.658375990000003                       0
   235   2                       0      39.410800000000002                       0
   236   2      3.1215999999999999      39.381624010000003                       0
   237   1      6.2431999999999999      39.349049860000001                       0
   238   2      9.3648000000000007      39.312780590000003                       0
   239   2                 12.4864      39.272606570000001                       0
   240   2      15.608000000000001      39.228474900000002                       0
   241   1      18.729600000000001      39.180569560000002                       0
   242   1      21.851199999999999      39.129382999999997                       0
   243   2      24.972799999999999      39.075748330000003                       0
   244   1                 28.0944      42.140799999999999                       0
   245   2      31.216000000000001      42.085851669999997                       0
   246   2      34.337600000000002      42.032217000000003                       0
   247   2      37.459200000000003      41.981030439999998                       0
   248   2      40.580800000000004      41.933125099999998                       0
   249   2      43.702399999999997      41.888993429999999                       0
   250   2      46.823999999999998      41.848819409999997                       0
   251   2      49.945599999999999      41.812550139999999                       0
   252   2                 53.0672      41.779975989999997                       0
   253   1                       0      42.532400000000003                       0
   254   1      3.1215999999999999      42.503224009999997                       0
   255   2      6.2431999999999999      42.470649860000002                       0
   256   1      9.3648000000000007      42.434380590000004                       0
   257   2                 12.4864      42.394206570000001                       0
   258   1      15.608000000000001      42.350074900000003                       0
   259   2      18.729600000000001      42.302169560000003                       0
   260   1      21.851199999999999      42.250982999999998                       0
   261   2      24.972799999999999      42.197348329999997                       0
   262   1                 28.0944                 45.2624                       0
   263   2      31.216000000000001      45.207451669999998                       0
   264   1      34.337600000000002      45.153816999999997                       0
   265   2      37.459200000000003      45.102630439999999                       0
   266   2      40.580800000000004      45.054725099999999                       0
   267   1      43.702399999999997             45.01059343                       0
   268   1      46.823999999999998      44.970419409999998                       0
   269   2      49.945599999999999             44.93415014                       0
   270   2                 53.0672      44.901575989999998                       0
   271   1                       0      45.654000000000003                       0
   272   2      3.1215999999999999      45.624824009999998                       0
   273   2      6.2431999999999999      45.592249860000003                       0
   274   1      9.3648000000000007      45.555980589999997                       0
   275   2                 12.4864      45.515806570000002                       0
   276   2      15.608000000000001      45.471674899999996                       0
   277   1      18.729600000000001      45.423769559999997                       0
   278   2      21.851199999999999      45.372582999999999                       0
   279   1      24.972799999999999      45.318948329999998                       0
   280   2                 28.0944                  48.384                       0
   281   1      31.216000000000001      48.329051669999998                       0
   282   1      34.337600000000002      48.275416999999997                       0
   283   2      37.459200000000003      48.224230439999999                       0
   284   2      40.580800000000004              48.1763251                       0
   285   2      43.702399999999997      48.132193430000001                       0
   286   1      46.823999999999998      48.092019409999999                       0
   287   1      49.945599999999999      48.055750140000001                       0
   288   2                 53.0672      48.023175989999999                       0
   289   2                       0      48.775599999999997                       0
   290   1      3.1215999999999999      48.746424009999998                       0
   291   1      6.2431999999999999      48.713849860000003                       0
   292   1      9.3648000000000007      48.677580589999998                       0
   293   2                 12.4864      48.637406570000003                       0
   294   2      15.608000000000001      48.593274899999997                       0
   295   1      18.729600000000001      48.545369559999997                       0
   296   2      21.851199999999999               48.494183                       0
   297   2      24.972799999999999      48.440548329999999                       0
   298   2                 28.0944      51.505600000000001                       0
   299   1      31.216000000000001      51.450651669999999                       0
   300   2      34.337600000000002      51.397016999999998                       0
   301   1      37.459200000000003             51.34583044                       0
   302   1      40.580800000000004              51.2979251                       0
   303   2      43.702399999999997      51.253793430000002                       0
   304   1      46.823999999999998             51.21361941                       0
   305   2      49.945599999999999      51.177350140000001                       0
   306   2                 53.0672      51.144775989999999                       0
   307   1                       0      51.897199999999998                       0
   308   2      3.1215999999999999      51.868024009999999                       0
   309   2      6.2431999999999999      51.835449859999997                       0
   310   1      9.3648000000000007      51.799180589999999                       0
   311   1                 12.4864      51.759006569999997                       0
   312   1      15.608000000000001      51.714874899999998                       0
   313   2      18.729600000000001      51.666969559999998                       0
   314   1      21.851199999999999               51.615783                       0
   315   1      24.972799999999999      51.562148329999999                       0
   316   2                 28.0944      54.627200000000002                       0
   317   1      31.216000000000001             54.57225167                       0
   318   1      34.337600000000002      54.518616999999999                       0
   319   2      37.459200000000003      54.467430440000001                       0
   320   2      40.580800000000004      54.419525100000001                       0
   321   1      43.702399999999997      54.375393430000003                       0
   322   2      46.823999999999998      54.335219410000001                       0
   323   1      49.945599999999999      54.298950140000002                       0
   324   1                 53.0672             54.26637599                       0
   325   1                       0             -1.14082401      3.1215999999999999
   326   1      3.1215999999999999     -1.1699999999999999      3.1215999999999999
   327   1      6.2431999999999999             -1.20305532      3.1215999999999999
   328   2      9.3648000000000007             -1.24046089      3.1215999999999999
   329   2                 12.4864             -1.28262001      3.1215999999999999
   330   2      15.608000000000001     -1.3297695599999999      3.1215999999999999
   331   1      18.729600000000001     -1.3818476099999999      3.1215999999999999
   332   1      21.851199999999999             -1.43835256      3.1215999999999999
   333   2      24.972799999999999             -1.49824986      3.1215999999999999
   334   2                 28.0944      1.5600000000000001      3.1215999999999999
   335   1      31.216000000000001              1.49824986      3.1215999999999999
   336   2      34.337600000000002              1.43835256      3.1215999999999999
   337   2      37.459200000000003      1.3818476099999999      3.1215999999999999
   338   1      40.580800000000004      1.3297695599999999      3.1215999999999999
   339   2      43.702399999999997              1.28262001      3.1215999999999999
   340   1      46.823999999999998              1.24046089      3.1215999999999999
   341   1      49.945599999999999              1.20305532      3.1215999999999999
   342   2                 53.0672      1.1699999999999999      3.1215999999999999
   343   2                       0      1.9807759899999999      3.1215999999999999
   344   1      3.1215999999999999                  1.9516      3.1215999999999999
   345   1      6.2431999999999999      1.9185446799999999      3.1215999999999999
   346   2      9.3648000000000007      1.8811391099999999      3.1215999999999999
   347   1                 12.4864      1.8389799899999999      3.1215999999999999
   348   2      15.608000000000001              1.79183044      3.1215999999999999
   349   2      18.729600000000001              1.73975239      3.1215999999999999
   350   2      21.851199999999999      1.6832474399999999      3.1215999999999999
   351   1      24.972799999999999      1.6233501400000001      3.1215999999999999
   352   1                 28.0944      4.6816000000000004      3.1215999999999999
   353   2      31.216000000000001      4.6198498600000004      3.1215999999999999
   354   1      34.337600000000002      4.5599525600000002      3.1215999999999999
   355   2      37.459200000000003      4.5034476100000003      3.1215999999999999
   356   1      40.580800000000004      4.4513695599999998      3.1215999999999999
   357   1      43.702399999999997      4.4042200100000004      3.1215999999999999
   358   1      46.823999999999998      4.3620608900000004      3.1215999999999999