LAMMPS (2 Aug 2023)
log /home/winniebird/sfarrelly2024/test/test_projects/test_project_2/var_2/project/logs/heat_log.log
