LAMMPS (2 Aug 2023)
log /home/winniebird/sfarrelly2024/test/test_projects/test_project/project/logs/relax_log.log
