# LAMMPS input script generated by PyLammps
# Initialise simulation
atom_style     atomic
units          metal
read_data     /home/winniebird/sfarrelly2024/test/test_projects/test_project_2/var_2/project/data/output/after_relax.data
Reading data file ...
  orthogonal box = (0 0 0) to (12.504535 12.46285 12.44461)
  1 by 1 by 1 MPI processor grid
  reading atoms ...
  128 atoms
  reading velocities ...
  128 velocities
  read_data CPU = 0.002 seconds
# 5 elements of HEA: Ni Co Ti Zr Hf specorder
mass           1 58.693
mass           2 58.933
mass           3 47.867
mass           4 91.224
mass           5 178.49
# Reading snap potential files
pair_style     snap
pair_coeff     * * /home/winniebird/sfarrelly2024/test/sez26_package/SNAP_potentials/HEA_var1.snapcoeff /home/winniebird/sfarrelly2024/test/sez26_package/SNAP_potentials/HEA_var1.snapparam Ni Co Ti Zr Hf
SNAP Element = Ni, Radius 1.805, Weight 0.43
SNAP Element = Co, Radius 1.81, Weight 0.48
SNAP Element = Ti, Radius 2.094, Weight 0.36
SNAP Element = Zr, Radius 2.28, Weight 0.35
SNAP Element = Hf, Radius 2.313, Weight 0.33
SNAP keyword rcutfac 1.0
SNAP keyword twojmax 8
SNAP keyword rfac0 0.99363
SNAP keyword rmin0 0.0
SNAP keyword bzeroflag 0
SNAP keyword wselfallflag 0
SNAP keyword chemflag 0
SNAP keyword bnormflag 0
SNAP keyword switchinnerflag 0
SNAP keyword quadraticflag 0
# Setup standard output
variable       avg_lxyz equal (lx+ly+lz)/3.0
thermo_style   custom step temp pe pxx pyy pzz density
thermo         100
# Set up and run MD in NPT ensemble
timestep       0.001
neighbor       1.0 bin
neigh_modify   every 5 delay 0 check yes
reset_timestep 0
dump		    1 all custom 1000 /home/winniebird/sfarrelly2024/test/test_projects/test_project_2/var_2/project/data/output/md_npt_dump.cfg id type x y z
fix		    1 all npt temp 300.0 300.0 0.1 aniso 0 0 1.0
fix		    avg all ave/time 10 100 1000 c_thermo_temp v_avg_lxyz
run		    1000
Neighbor list info ...
  update: every = 5 steps, delay = 0 steps, check = yes
  max neighbors/atom: 2000, page size: 100000
  master list distance cutoff = 5.626
  ghost atom cutoff = 5.626
  binsize = 2.813, bins = 5 5 5
  1 neighbor lists, perpetual/occasional/extra = 1 0 0
  (1) pair snap, perpetual
      attributes: full, newton on
      pair build: full/bin/atomonly
      stencil: full/bin/3d
      bin: standard
Per MPI rank memory allocation (min/avg/max) = 3.59 | 3.59 | 3.59 Mbytes
   Step          Temp          PotEng          Pxx            Pyy            Pzz          Density    
         0   300.8156      -1001.3116     -413.28477      2547.6474      859.20342      8.9740758    
       100   293.50457     -1001.2001      2303.0771     -2862.8234      1525.289       8.9664194    
       200   295.80213     -1001.34       -1739.5289     -375.07635     -2778.4479      8.9550718    
       300   299.2099      -1001.4745      262.74202      5233.5248      1569.371       8.9769093    
       400   311.17679     -1001.4171     -1127.809      -7502.3779      2285.0282      8.9581913    
       500   281.37961     -1000.675      -2830.4388     -5252.552      -8057.5386      8.9290906    
       600   338.42207     -1001.1113      8045.1932      19220.089      9700.4641      9.0386196    
       700   316.20099     -1000.9776     -11352.053     -8713.1254     -4151.7829      8.9054626    
       800   280.1329      -1001.203      -2470.9088     -15737.946     -9258.2418      8.9207563    
       900   281.02071     -1001.3288      17409.548      18638.635      13081.513      9.0551012    
      1000   276.09818     -1000.984      -3167.087       982.09886      1089.6888      8.9629284    
Loop time of 21.1709 on 1 procs for 1000 steps with 128 atoms

Performance: 4.081 ns/day, 5.881 hours/ns, 47.235 timesteps/s, 6.046 katom-step/s
100.0% CPU use with 1 MPI tasks x no OpenMP threads

MPI task timing breakdown:
Section |  min time  |  avg time  |  max time  |%varavg| %total
---------------------------------------------------------------
Pair    | 21.16      | 21.16      | 21.16      |   0.0 | 99.95
Neigh   | 0.0027327  | 0.0027327  | 0.0027327  |   0.0 |  0.01
Comm    | 0.0020833  | 0.0020833  | 0.0020833  |   0.0 |  0.01
Output  | 0.00027389 | 0.00027389 | 0.00027389 |   0.0 |  0.00
Modify  | 0.0052851  | 0.0052851  | 0.0052851  |   0.0 |  0.02
Other   |            | 0.0005738  |            |       |  0.00

Nlocal:            128 ave         128 max         128 min
Histogram: 1 0 0 0 0 0 0 0 0 0
Nghost:            727 ave         727 max         727 min
Histogram: 1 0 0 0 0 0 0 0 0 0
Neighs:              0 ave           0 max           0 min
Histogram: 1 0 0 0 0 0 0 0 0 0
FullNghs:         4162 ave        4162 max        4162 min
Histogram: 1 0 0 0 0 0 0 0 0 0

Total # of neighbors = 4162
Ave neighs/atom = 32.515625
Neighbor list builds = 13
Dangerous builds = 0
unfix		    1
variable       avg_T equal f_avg[1]
variable       L equal f_avg[2]
variable       L0 equal ${L}
variable       L0 equal 12.4760933735452
print          "Temp Strain" file /home/winniebird/sfarrelly2024/test/test_projects/test_project_2/var_2/project/data/output/Record_thermal_exp.txt
Temp Strain
print          "${avg_T}    0.0" append /home/winniebird/sfarrelly2024/test/test_projects/test_project_2/var_2/project/data/output/Record_thermal_exp.txt
299.764415566401    0.0
unfix          avg
variable	    n loop 3
label          heat
variable       t equal 300.0+${n}*50
variable       t equal 300.0+1*50
fix            1 all npt temp ${t} ${t} 0.1 aniso 0 0 1.0
fix            1 all npt temp 350 ${t} 0.1 aniso 0 0 1.0
fix            1 all npt temp 350 350 0.1 aniso 0 0 1.0
fix		    avg all ave/time 10 100 1000 c_thermo_temp v_avg_lxyz
run		    1000
Per MPI rank memory allocation (min/avg/max) = 4.854 | 4.854 | 4.854 Mbytes
   Step          Temp          PotEng          Pxx            Pyy            Pzz          Density    
      1000   276.09818     -1000.984      -3167.087       982.09886      1089.6888      8.9629284    
      1100   317.45205     -1000.9395     -2067.5486     -1560.2913      1302.3697      8.9433332    
      1200   312.30613     -1000.202       10753.438      2832.197      -1801.7056      8.9659349    
      1300   323.21823     -999.96089     -1892.4146      1234.0099     -724.57496      8.9532933    
      1400   380.25034     -1000.2326     -6660.1277      723.58092      6965.3758      8.9575606    
      1500   343.32921     -999.74935      77.12574      -2878.7034     -3119.028       8.9204037    
      1600   353.6666      -1000.7567      7512.5688      4750.7461     -4682.1066      8.9853779    
      1700   334.70918     -1001.0022     -10351.33      -10004.413     -6469.4356      8.9096455    
      1800   356.72589     -1000.9946      6578.264       8598.5446      8099.3873      8.9996207    
      1900   332.28497     -1000.0623     -3878.7035     -737.71815     -2249.3044      8.9405141    
      2000   352.98683     -1000.0177     -2324.5789     -7930.8394     -2847.0953      8.9217492    
Loop time of 21.2231 on 1 procs for 1000 steps with 128 atoms

Performance: 4.071 ns/day, 5.895 hours/ns, 47.119 timesteps/s, 6.031 katom-step/s
100.0% CPU use with 1 MPI tasks x no OpenMP threads

MPI task timing breakdown:
Section |  min time  |  avg time  |  max time  |%varavg| %total
---------------------------------------------------------------
Pair    | 21.212     | 21.212     | 21.212     |   0.0 | 99.95
Neigh   | 0.0029934  | 0.0029934  | 0.0029934  |   0.0 |  0.01
Comm    | 0.0021157  | 0.0021157  | 0.0021157  |   0.0 |  0.01
Output  | 0.00026599 | 0.00026599 | 0.00026599 |   0.0 |  0.00
Modify  | 0.0053512  | 0.0053512  | 0.0053512  |   0.0 |  0.03
Other   |            | 0.0005544  |            |       |  0.00

Nlocal:            128 ave         128 max         128 min
Histogram: 1 0 0 0 0 0 0 0 0 0
Nghost:            727 ave         727 max         727 min
Histogram: 1 0 0 0 0 0 0 0 0 0
Neighs:              0 ave           0 max           0 min
Histogram: 1 0 0 0 0 0 0 0 0 0
FullNghs:         4258 ave        4258 max        4258 min
Histogram: 1 0 0 0 0 0 0 0 0 0

Total # of neighbors = 4258
Ave neighs/atom = 33.265625
Neighbor list builds = 14
Dangerous builds = 0
unfix		    1
variable       avg_T equal f_avg[1]
variable       strain equal f_avg[2]/${L0}-1.0
variable       strain equal f_avg[2]/12.4760933735452-1.0
print          "${avg_T}    ${strain}" append /home/winniebird/sfarrelly2024/test/test_projects/test_project_2/var_2/project/data/output/Record_thermal_exp.txt
341.525726404386    0.000306107476849782
unfix          avg
next           n
jump          /home/winniebird/sfarrelly2024/test/test_projects/test_project_2/var_2/project/data/input/in.heat.HEA heat
variable       t equal 300.0+${n}*50
variable       t equal 300.0+2*50
fix            1 all npt temp ${t} ${t} 0.1 aniso 0 0 1.0
fix            1 all npt temp 400 ${t} 0.1 aniso 0 0 1.0
fix            1 all npt temp 400 400 0.1 aniso 0 0 1.0
fix		    avg all ave/time 10 100 1000 c_thermo_temp v_avg_lxyz
run		    1000
Per MPI rank memory allocation (min/avg/max) = 4.854 | 4.854 | 4.854 Mbytes
   Step          Temp          PotEng          Pxx            Pyy            Pzz          Density    
      2000   352.98683     -1000.0177     -2324.5789     -7930.8394     -2847.0953      8.9217492    
      2100   374.20244     -999.87256     -859.17654      3592.925       3751.5785      8.9405251    
      2200   365.05917     -998.84875      7191.1534      7827.9404      1135.9111      8.9639623    
      2300   419.49698     -999.3362      -4369.1959     -9883.6486     -11070.24       8.8780945    
      2400   412.69677     -999.33243      8489.4158      5582.7523      18817.857      9.0033336    
      2500   374.72344     -999.41342     -18444.318     -10726.388     -15436.443      8.8571671    
      2600   370.80635     -1000.0073      14211.868      18814.822      8741.1829      9.0280224    
      2700   336.21119     -1000.3251     -4446.9472     -13961.954     -12100.616      8.8843302    
      2800   338.61313     -1000.2206      10717.821      6126.3302      11994.411      8.9992118    
      2900   386.6328      -999.72572     -9556.2847     -975.49215     -3937.2072      8.9015501    
      3000   393.02598     -999.35941     -9180.8239      1741.8228     -3990.7619      8.9145044    
Loop time of 21.2399 on 1 procs for 1000 steps with 128 atoms

Performance: 4.068 ns/day, 5.900 hours/ns, 47.081 timesteps/s, 6.026 katom-step/s
100.0% CPU use with 1 MPI tasks x no OpenMP threads

MPI task timing breakdown:
Section |  min time  |  avg time  |  max time  |%varavg| %total
---------------------------------------------------------------
Pair    | 21.228     | 21.228     | 21.228     |   0.0 | 99.95
Neigh   | 0.0032375  | 0.0032375  | 0.0032375  |   0.0 |  0.02
Comm    | 0.0021122  | 0.0021122  | 0.0021122  |   0.0 |  0.01
Output  | 0.00025338 | 0.00025338 | 0.00025338 |   0.0 |  0.00
Modify  | 0.0053682  | 0.0053682  | 0.0053682  |   0.0 |  0.03
Other   |            | 0.0005533  |            |       |  0.00

Nlocal:            128 ave         128 max         128 min
Histogram: 1 0 0 0 0 0 0 0 0 0
Nghost:            727 ave         727 max         727 min
Histogram: 1 0 0 0 0 0 0 0 0 0
Neighs:              0 ave           0 max           0 min
Histogram: 1 0 0 0 0 0 0 0 0 0
FullNghs:         4322 ave        4322 max        4322 min
Histogram: 1 0 0 0 0 0 0 0 0 0

Total # of neighbors = 4322
Ave neighs/atom = 33.765625
Neighbor list builds = 15
Dangerous builds = 0
unfix		    1
variable       avg_T equal f_avg[1]
variable       strain equal f_avg[2]/${L0}-1.0
variable       strain equal f_avg[2]/12.4760933735452-1.0
print          "${avg_T}    ${strain}" append /home/winniebird/sfarrelly2024/test/test_projects/test_project_2/var_2/project/data/output/Record_thermal_exp.txt
381.421179071109    0.000808778259301146
unfix          avg
next           n
jump          /home/winniebird/sfarrelly2024/test/test_projects/test_project_2/var_2/project/data/input/in.heat.HEA heat
variable       t equal 300.0+${n}*50
variable       t equal 300.0+3*50
fix            1 all npt temp ${t} ${t} 0.1 aniso 0 0 1.0
fix            1 all npt temp 450 ${t} 0.1 aniso 0 0 1.0
fix            1 all npt temp 450 450 0.1 aniso 0 0 1.0
fix		    avg all ave/time 10 100 1000 c_thermo_temp v_avg_lxyz
run		    1000
Per MPI rank memory allocation (min/avg/max) = 4.854 | 4.854 | 4.854 Mbytes
   Step          Temp          PotEng          Pxx            Pyy            Pzz          Density    
      3000   393.02598     -999.35941     -9180.8239      1741.8228     -3990.7619      8.9145044    
      3100   439.15023     -999.44164     -953.1672       1401.5651      5727.2453      8.9366698    
      3200   411.54366     -998.11885     -408.00615     -6245.0636      1950.123       8.8993109    
      3300   444.52272     -998.30145      11803.136      7073.1658     -7546.1622      8.9411537    
      3400   453.49364     -998.93249     -559.07206      1371.9476     -10030.079      8.9018599    
      3500   420.95736     -998.73192     -6623.999       4155.9601      16637.339      8.9522349    
      3600   487.02704     -999.80674     -7684.4364     -10335.917      7367.9247      8.9095783    
      3700   410.09813     -998.37409      7452.2271      1380.0402     -543.64607      8.9293348    
      3800   462.03222     -998.22508      1621.542       3701.6711     -12304.031      8.906091     
      3900   495.36385     -998.34689      6969.3827      100.31473     -1745.4992      8.9143542    
      4000   488.38267     -998.40444     -9313.069       1264.0766      6229.6521      8.9106653    
Loop time of 21.2372 on 1 procs for 1000 steps with 128 atoms

Performance: 4.068 ns/day, 5.899 hours/ns, 47.087 timesteps/s, 6.027 katom-step/s
100.0% CPU use with 1 MPI tasks x no OpenMP threads

MPI task timing breakdown:
Section |  min time  |  avg time  |  max time  |%varavg| %total
---------------------------------------------------------------
Pair    | 21.225     | 21.225     | 21.225     |   0.0 | 99.94
Neigh   | 0.0036835  | 0.0036835  | 0.0036835  |   0.0 |  0.02
Comm    | 0.0020978  | 0.0020978  | 0.0020978  |   0.0 |  0.01
Output  | 0.00026882 | 0.00026882 | 0.00026882 |   0.0 |  0.00
Modify  | 0.0053603  | 0.0053603  | 0.0053603  |   0.0 |  0.03
Other   |            | 0.0005644  |            |       |  0.00

Nlocal:            128 ave         128 max         128 min
Histogram: 1 0 0 0 0 0 0 0 0 0
Nghost:            727 ave         727 max         727 min
Histogram: 1 0 0 0 0 0 0 0 0 0
Neighs:              0 ave           0 max           0 min
Histogram: 1 0 0 0 0 0 0 0 0 0
FullNghs:         4196 ave        4196 max        4196 min
Histogram: 1 0 0 0 0 0 0 0 0 0

Total # of neighbors = 4196
Ave neighs/atom = 32.78125
Neighbor list builds = 17
Dangerous builds = 0
unfix		    1
variable       avg_T equal f_avg[1]
variable       strain equal f_avg[2]/${L0}-1.0
variable       strain equal f_avg[2]/12.4760933735452-1.0
print          "${avg_T}    ${strain}" append /home/winniebird/sfarrelly2024/test/test_projects/test_project_2/var_2/project/data/output/Record_thermal_exp.txt
448.024571604858    0.00167013672348526
unfix          avg
next           n
jump          /home/winniebird/sfarrelly2024/test/test_projects/test_project_2/var_2/project/data/input/in.heat.HEA heat
Total wall time: 0:01:25
