# LAMMPS input script generated by PyLammps
# Initialise simulation
atom_style     atomic
units          metal
read_data     /home/winniebird/sfarrelly2024/test/test_projects/test_project_2/var_2/project/data//input/HEA_II.lmp
Reading data file ...
  orthogonal box = (0 0 0) to (12.512 12.512 12.512)
  1 by 1 by 1 MPI processor grid
  reading atoms ...
  128 atoms
  read_data CPU = 0.001 seconds
# 5 elements of HEA: Ni Co Ti Zr Hf specorder
mass           1 58.693
mass           2 58.933
mass           3 47.867
mass           4 91.224
mass           5 178.49
# Reading snap potential files
pair_style     snap
pair_coeff     * * /home/winniebird/sfarrelly2024/test/sez26_package/SNAP_potentials/HEA_var2.snapcoeff /home/winniebird/sfarrelly2024/test/sez26_package/SNAP_potentials/HEA_var2.snapparam Ni Co Ti Zr Hf
SNAP Element = Ni, Radius 1.849, Weight 0.31
SNAP Element = Co, Radius 1.853, Weight 0.33
SNAP Element = Ti, Radius 2.05, Weight 0.48
SNAP Element = Zr, Radius 2.18, Weight 0.45
SNAP Element = Hf, Radius 2.303, Weight 0.51
SNAP keyword rcutfac 1.0
SNAP keyword twojmax 8
SNAP keyword rfac0 0.99363
SNAP keyword rmin0 0.0
SNAP keyword bzeroflag 0
SNAP keyword wselfallflag 0
SNAP keyword chemflag 0
SNAP keyword bnormflag 0
SNAP keyword switchinnerflag 0
SNAP keyword quadraticflag 0
# Setup standard output
thermo_style   custom step temp pe pxx pyy pzz density
thermo         100
# Set up and run minimization
dump		    1 all custom 100 /home/winniebird/sfarrelly2024/test/test_projects/test_project_2/var_2/project/data/output/min_dump.cfg id type x y z
min_style	    cg
fix		    1 all box/relax aniso 0.0
minimize	    0.0 0.02 200 1000
Neighbor list info ...
  update: every = 1 steps, delay = 0 steps, check = yes
  max neighbors/atom: 2000, page size: 100000
  master list distance cutoff = 6.606
  ghost atom cutoff = 6.606
  binsize = 3.303, bins = 4 4 4
  1 neighbor lists, perpetual/occasional/extra = 1 0 0
  (1) pair snap, perpetual
      attributes: full, newton on
      pair build: full/bin/atomonly
      stencil: full/bin/3d
      bin: standard
WARNING: Energy due to 3 extra global DOFs will be included in minimizer energies
 (../min.cpp:225)
Per MPI rank memory allocation (min/avg/max) = 4.811 | 4.811 | 4.811 Mbytes
   Step          Temp          PotEng          Pxx            Pyy            Pzz          Density    
         0   0             -1001.9425     -22197.426     -23911.933     -22189.302      8.8853741    
       100   0             -1002.8939     -196.31263     -193.68569     -206.70481      9.0285291    
       200   0             -1003.9145      106.14789      106.56623      102.98654      9.043135     
Loop time of 6.61872 on 1 procs for 200 steps with 128 atoms

100.0% CPU use with 1 MPI tasks x no OpenMP threads

Minimization stats:
  Stopping criterion = max iterations
  Energy initial, next-to-last, final = 
     -1001.94249602124  -1003.91279147244  -1003.91452073078
  Force two-norm initial, final = 48.491053 2.5325369
  Force max component initial, final = 29.23375 0.56156575
  Final line search alpha, max atom move = 0.00023682881 0.00013299495
  Iterations, force evaluations = 200 200

MPI task timing breakdown:
Section |  min time  |  avg time  |  max time  |%varavg| %total
---------------------------------------------------------------
Pair    | 6.6152     | 6.6152     | 6.6152     |   0.0 | 99.95
Neigh   | 0          | 0          | 0          |   0.0 |  0.00
Comm    | 0.00058314 | 0.00058314 | 0.00058314 |   0.0 |  0.01
Output  | 0.00028089 | 0.00028089 | 0.00028089 |   0.0 |  0.00
Modify  | 0          | 0          | 0          |   0.0 |  0.00
Other   |            | 0.002696   |            |       |  0.04

Nlocal:            128 ave         128 max         128 min
Histogram: 1 0 0 0 0 0 0 0 0 0
Nghost:           1113 ave        1113 max        1113 min
Histogram: 1 0 0 0 0 0 0 0 0 0
Neighs:              0 ave           0 max           0 min
Histogram: 1 0 0 0 0 0 0 0 0 0
FullNghs:         7660 ave        7660 max        7660 min
Histogram: 1 0 0 0 0 0 0 0 0 0

Total # of neighbors = 7660
Ave neighs/atom = 59.84375
Neighbor list builds = 0
Dangerous builds = 0
unfix		    1
minimize	    0.0 0.02 200 1000
Per MPI rank memory allocation (min/avg/max) = 6.066 | 6.066 | 6.066 Mbytes
   Step          Temp          PotEng          Pxx            Pyy            Pzz          Density    
       200   0             -1003.9145      106.14789      106.56623      102.98654      9.043135     
       231   0             -1005.7764     -4427.6272     -5667.2746     -6652.6592      9.043135     
Loop time of 2.02041 on 1 procs for 31 steps with 128 atoms

100.0% CPU use with 1 MPI tasks x no OpenMP threads

Minimization stats:
  Stopping criterion = force tolerance
  Energy initial, next-to-last, final = 
     -1003.91452073078  -1005.77634737028  -1005.77639151617
  Force two-norm initial, final = 2.5229403 0.018279104
  Force max component initial, final = 0.56156575 0.0034713542
  Final line search alpha, max atom move = 1 0.0034713542
  Iterations, force evaluations = 31 60

MPI task timing breakdown:
Section |  min time  |  avg time  |  max time  |%varavg| %total
---------------------------------------------------------------
Pair    | 2.02       | 2.02       | 2.02       |   0.0 | 99.98
Neigh   | 0          | 0          | 0          |   0.0 |  0.00
Comm    | 0.00018323 | 0.00018323 | 0.00018323 |   0.0 |  0.01
Output  | 0          | 0          | 0          |   0.0 |  0.00
Modify  | 0          | 0          | 0          |   0.0 |  0.00
Other   |            | 0.0002813  |            |       |  0.01

Nlocal:            128 ave         128 max         128 min
Histogram: 1 0 0 0 0 0 0 0 0 0
Nghost:           1113 ave        1113 max        1113 min
Histogram: 1 0 0 0 0 0 0 0 0 0
Neighs:              0 ave           0 max           0 min
Histogram: 1 0 0 0 0 0 0 0 0 0
FullNghs:         7720 ave        7720 max        7720 min
Histogram: 1 0 0 0 0 0 0 0 0 0

Total # of neighbors = 7720
Ave neighs/atom = 60.3125
Neighbor list builds = 0
Dangerous builds = 0
undump		    1
write_data	/home/winniebird/sfarrelly2024/test/test_projects/test_project_2/var_2/project/data/output/after_min.data nocoeff
System init for write_data ...
# Define some properties you are instrested in
variable	    lenx equal lx
variable	    leny equal ly
variable	    lenz equal lz
# computing more variables
compute		    sta all stress/atom NULL
compute		    vol_atom all voronoi/atom
variable	    va atom c_vol_atom[1]
variable	    sa_xx atom 1E-4*c_sta[1]/v_va
variable	    sa_yy atom 1E-4*c_sta[2]/v_va
variable	    sa_zz atom 1E-4*c_sta[3]/v_va
variable	    sa_xy atom 1E-4*c_sta[4]/v_va
variable	    sa_xz atom 1E-4*c_sta[5]/v_va
variable	    sa_yz atom 1E-4*c_sta[6]/v_va
variable	    sa_hydro atom (v_sa_xx+v_sa_yy+v_sa_zz)/3.0
variable	    sa_von atom sqrt(0.5*((v_sa_xx-v_sa_yy)^2+(v_sa_yy-v_sa_zz)^2+(v_sa_zz-v_sa_xx)^2)+3.0*((v_sa_xy)^2+(v_sa_xz)^2+(v_sa_yz)^2))
# Set up and run MD in NPT ensemble
timestep       0.001
neighbor       1.0 bin
neigh_modify   every 5 delay 0 check yes
reset_timestep 0
velocity	    all create 300.0 12345678
dump		    1 all custom 1000 /home/winniebird/sfarrelly2024/test/test_projects/test_project_2/var_2/project/data/output/md_npt_dump.cfg id type x y z v_sa_hydro v_sa_von
fix		    2 all print 100 "$(step) $(temp) $(pe) $(vol) $(density) $(pxx) $(pyy) $(pzz)" file /home/winniebird/sfarrelly2024/test/test_projects/test_project_2/var_2/project/data//output/Record_npt.txt
fix		    1 all npt temp 300.0 300.0 0.1 aniso 0 0 1.0
fix		    avg all ave/time 10 100 1000 v_lenx v_leny v_lenz
run		    1000
0 299.99999999999988631 -1005.7763915161676778 1924.5841735253702609 9.0431349922981549838 -1779.8213294718195812 -2724.6963858761419033 -4043.4359176600969477
Per MPI rank memory allocation (min/avg/max) = 4.437 | 4.437 | 4.437 Mbytes
   Step          Temp          PotEng          Pxx            Pyy            Pzz          Density    
         0   300           -1005.7764     -1779.8213     -2724.6964     -4043.4359      9.043135     
100 165.56844191871755356 -1003.0974060542134794 1942.7349541518242404 8.9586458760294487291 -9271.5549047797758249 -9220.2281883745381492 -9823.6440276561934297
       100   165.56844     -1003.0974     -9271.5549     -9220.2282     -9823.644       8.9586459    
200 179.32269403050557344 -1002.2656275102967811 1927.7961267378841512 9.0280679807574379936 4716.6803497780438192 3373.5992120759906356 8281.3914370335442072
       200   179.32269     -1002.2656      4716.6803      3373.5992      8281.3914      9.028068     
300 220.30795261456884759 -1001.5359286826161451 1933.4091379339117793 9.0018579843007948682 5705.9765872165280598 8473.5616747768526693 3335.3010865618175558
       300   220.30795     -1001.5359      5705.9766      8473.5617      3335.3011      9.001858     
400 270.13362339241058407 -1000.9226291425875388 1945.8442587458687285 8.9443306713805892372 -5872.3126853505036706 -3278.1855985012816745 -4482.2470840420255627
       400   270.13362     -1000.9226     -5872.3127     -3278.1856     -4482.2471      8.9443307    
500 348.9856662375048586 -1000.9789778713046644 1942.1348211132835786 8.9614141593187159884 -263.59032173048058212 -1162.082700331260412 3525.9384219589101122
       500   348.98567     -1000.979      -263.59032     -1162.0827      3525.9384      8.9614142    
600 327.1232551826868189 -1000.2665413413591295 1940.1912506894195758 8.9703911813055210445 3020.523591774495344 4790.5926498977869414 4127.7509594789435141
       600   327.12326     -1000.2665      3020.5236      4790.5926      4127.751       8.9703912    
700 303.37910783183809826 -1000.3700390713368051 1954.9634023924093071 8.9026088488059755832 -6870.8026574377145153 -7609.3480723524662608 -16257.448168035471099
       700   303.37911     -1000.37       -6870.8027     -7609.3481     -16257.448      8.9026088    
800 317.49383280684742203 -1001.2148370259607191 1935.5972928256892374 8.9916815598676524957 -2351.2300104567184462 815.1053106167058786 7189.3471437898488148
       800   317.49383     -1001.2148     -2351.23        815.10531      7189.3471      8.9916816    
900 276.27914175878726155 -1000.8219497780927441 1930.789112429790066 9.014073247662038213 9413.9405264812285168 2719.9440906115873986 11923.267383347505529
       900   276.27914     -1000.8219      9413.9405      2719.9441      11923.267      9.0140732    
1000 300.81560315487485013 -1000.7823277476966268 1954.9213476663978781 8.9028003638131494313 -9490.1327411153797584 -5731.5034597478979776 -19988.214495123287634
      1000   300.8156      -1000.7823     -9490.1327     -5731.5035     -19988.214      8.9028004    
Loop time of 20.5651 on 1 procs for 1000 steps with 128 atoms

Performance: 4.201 ns/day, 5.713 hours/ns, 48.626 timesteps/s, 6.224 katom-step/s
100.0% CPU use with 1 MPI tasks x no OpenMP threads

MPI task timing breakdown:
Section |  min time  |  avg time  |  max time  |%varavg| %total
---------------------------------------------------------------
Pair    | 20.548     | 20.548     | 20.548     |   0.0 | 99.92
Neigh   | 0.00212    | 0.00212    | 0.00212    |   0.0 |  0.01
Comm    | 0.0020728  | 0.0020728  | 0.0020728  |   0.0 |  0.01
Output  | 0.0066951  | 0.0066951  | 0.0066951  |   0.0 |  0.03
Modify  | 0.0055013  | 0.0055013  | 0.0055013  |   0.0 |  0.03
Other   |            | 0.000565   |            |       |  0.00

Nlocal:            128 ave         128 max         128 min
Histogram: 1 0 0 0 0 0 0 0 0 0
Nghost:            727 ave         727 max         727 min
Histogram: 1 0 0 0 0 0 0 0 0 0
Neighs:              0 ave           0 max           0 min
Histogram: 1 0 0 0 0 0 0 0 0 0
FullNghs:         4136 ave        4136 max        4136 min
Histogram: 1 0 0 0 0 0 0 0 0 0

Total # of neighbors = 4136
Ave neighs/atom = 32.3125
Neighbor list builds = 10
Dangerous builds = 0
undump		    1
unfix		    1
unfix		    2
variable	    newlx equal f_avg[1]
variable	    newly equal f_avg[2]
variable	    newlz equal f_avg[3]
change_box     all x final 0 ${newlx} y final 0 ${newly} z final 0 ${newlz} remap units box
change_box     all x final 0 12.504535244073 y final 0 ${newly} z final 0 ${newlz} remap units box
change_box     all x final 0 12.504535244073 y final 0 12.4628496814135 z final 0 ${newlz} remap units box
change_box     all x final 0 12.504535244073 y final 0 12.4628496814135 z final 0 12.4446096052736 remap units box
Changing box ...
  orthogonal box = (0 0.039764842 -0.042057011) to (12.504535 12.472235 12.554057)
  orthogonal box = (0 0 -0.042057011) to (12.504535 12.46285 12.554057)
  orthogonal box = (0 0 0) to (12.504535 12.46285 12.44461)
unfix          avg
write_data     /home/winniebird/sfarrelly2024/test/test_projects/test_project_2/var_2/project/data/output/after_relax.data nocoeff
System init for write_data ...
# Add a minimisation (perfect mesh analysis)
dump           1 all custom 100 /home/winniebird/sfarrelly2024/test/test_projects/test_project_2/var_2/project/data/output/min_dump.cfg id type x y z v_sa_hydro v_sa_von
minimize	    0.0 0.02 200 1000
Switching to 'neigh_modify every 1 delay 0 check yes' setting during minimization
Per MPI rank memory allocation (min/avg/max) = 6.562 | 6.562 | 6.562 Mbytes
   Step          Temp          PotEng          Pxx            Pyy            Pzz          Density    
      1000   300.8156      -1000.9361     -1170.3904      1728.5479      25.6577        8.9740758    
      1099   300.8156      -1006.7977     -18448.864     -13310.299     -16791.799      8.9740758    
Loop time of 6.34221 on 1 procs for 99 steps with 128 atoms

100.0% CPU use with 1 MPI tasks x no OpenMP threads

Minimization stats:
  Stopping criterion = force tolerance
  Energy initial, next-to-last, final = 
     -1000.93605574755  -1006.79763551341  -1006.79768343093
  Force two-norm initial, final = 7.3813289 0.019515928
  Force max component initial, final = 1.4874533 0.0035940159
  Final line search alpha, max atom move = 1 0.0035940159
  Iterations, force evaluations = 99 191

MPI task timing breakdown:
Section |  min time  |  avg time  |  max time  |%varavg| %total
---------------------------------------------------------------
Pair    | 6.3336     | 6.3336     | 6.3336     |   0.0 | 99.86
Neigh   | 0.00085631 | 0.00085631 | 0.00085631 |   0.0 |  0.01
Comm    | 0.00044624 | 0.00044624 | 0.00044624 |   0.0 |  0.01
Output  | 0          | 0          | 0          |   0.0 |  0.00
Modify  | 0          | 0          | 0          |   0.0 |  0.00
Other   |            | 0.007351   |            |       |  0.12

Nlocal:            128 ave         128 max         128 min
Histogram: 1 0 0 0 0 0 0 0 0 0
Nghost:            737 ave         737 max         737 min
Histogram: 1 0 0 0 0 0 0 0 0 0
Neighs:              0 ave           0 max           0 min
Histogram: 1 0 0 0 0 0 0 0 0 0
FullNghs:         4500 ave        4500 max        4500 min
Histogram: 1 0 0 0 0 0 0 0 0 0

Total # of neighbors = 4500
Ave neighs/atom = 35.15625
Neighbor list builds = 4
Dangerous builds = 0
undump         1
Total wall time: 0:00:35
