 # Bcc Fe oriented X=[111], Y=[1-10], Z=[11-2].
  
        4032  atoms
           1  atom types
 
      0.000000000000      64.847982235379  xlo xhi
      0.000000000000      30.886424202228  ylo yhi
      0.000000000000      30.569631989934  zlo zhi
 
Masses
 
            1   55.84500000             # Fe
 
Atoms # atomic
 
         1    1        0.000000000000       2.206173157302       3.821203998742
         2    1        1.801332839872       0.000000000000       5.094938664989
         3    1        0.000000000000       0.000000000000       0.000000000000
         4    1        1.801332839872       2.206173157302       1.273734666247
         5    1        0.900666419936       2.206173157302       6.368673331236
         6    1        0.900666419936       0.000000000000       2.547469332495
         7    1        2.701999259807       2.206173157302       3.821203998742
         8    1        4.503332099679       0.000000000000       5.094938664989
         9    1        2.701999259807       0.000000000000       0.000000000000
        10    1        4.503332099679       2.206173157302       1.273734666247
        11    1        3.602665679743       2.206173157302       6.368673331236
        12    1        3.602665679743       0.000000000000       2.547469332495
        13    1        5.403998519615       2.206173157302       3.821203998742
        14    1        7.205331359487       0.000000000000       5.094938664989
        15    1        5.403998519615       0.000000000000       0.000000000000
        16    1        7.205331359487       2.206173157302       1.273734666247
        17    1        6.304664939551       2.206173157302       6.368673331236
        18    1        6.304664939551       0.000000000000       2.547469332495
        19    1        8.105997779422       2.206173157302       3.821203998742
        20    1        9.907330619294       0.000000000000       5.094938664989
        21    1        8.105997779422       0.000000000000       0.000000000000
        22    1        9.907330619294       2.206173157302       1.273734666247
        23    1        9.006664199358       2.206173157302       6.368673331236
        24    1        9.006664199358       0.000000000000       2.547469332495
        25    1       10.807997039230       2.206173157302       3.821203998742
        26    1       12.609329879101       0.000000000000       5.094938664989
        27    1       10.807997039230       0.000000000000       0.000000000000
        28    1       12.609329879101       2.206173157302       1.273734666247
        29    1       11.708663459166       2.206173157302       6.368673331236
        30    1       11.708663459166       0.000000000000       2.547469332495
        31    1       13.509996299037       2.206173157302       3.821203998742
        32    1       15.311329138909       0.000000000000       5.094938664989
        33    1       13.509996299037       0.000000000000       0.000000000000
        34    1       15.311329138909       2.206173157302       1.273734666247
        35    1       14.410662718973       2.206173157302       6.368673331236
        36    1       14.410662718973       0.000000000000       2.547469332495
        37    1       16.211995558845       2.206173157302       3.821203998742
        38    1       18.013328398716       0.000000000000       5.094938664989
        39    1       16.211995558845       0.000000000000       0.000000000000
        40    1       18.013328398716       2.206173157302       1.273734666247
        41    1       17.112661978781       2.206173157302       6.368673331236
        42    1       17.112661978781       0.000000000000       2.547469332495
        43    1       18.913994818652       2.206173157302       3.821203998742
        44    1       20.715327658524       0.000000000000       5.094938664989
        45    1       18.913994818652       0.000000000000       0.000000000000
        46    1       20.715327658524       2.206173157302       1.273734666247
        47    1       19.814661238588       2.206173157302       6.368673331236
        48    1       19.814661238588       0.000000000000       2.547469332495
        49    1       21.615994078460       2.206173157302       3.821203998742
        50    1       23.417326918331       0.000000000000       5.094938664989
        51    1       21.615994078460       0.000000000000       0.000000000000
        52    1       23.417326918331       2.206173157302       1.273734666247
        53    1       22.516660498395       2.206173157302       6.368673331236
        54    1       22.516660498395       0.000000000000       2.547469332495
        55    1       24.317993338267       2.206173157302       3.821203998742
        56    1       26.119326178139       0.000000000000       5.094938664989
        57    1       24.317993338267       0.000000000000       0.000000000000
        58    1       26.119326178139       2.206173157302       1.273734666247
        59    1       25.218659758203       2.206173157302       6.368673331236
        60    1       25.218659758203       0.000000000000       2.547469332495
        61    1       27.019992598074       2.206173157302       3.821203998742
        62    1       28.821325437946       0.000000000000       5.094938664989
        63    1       27.019992598074       0.000000000000       0.000000000000
        64    1       28.821325437946       2.206173157302       1.273734666247
        65    1       27.920659018010       2.206173157302       6.368673331236
        66    1       27.920659018010       0.000000000000       2.547469332495
        67    1       29.721991857882       2.206173157302       3.821203998742
        68    1       31.523324697754       0.000000000000       5.094938664989
        69    1       29.721991857882       0.000000000000       0.000000000000
        70    1       31.523324697754       2.206173157302       1.273734666247
        71    1       30.622658277818       2.206173157302       6.368673331236
        72    1       30.622658277818       0.000000000000       2.547469332495
        73    1       32.423991117689       2.206173157302       3.821203998742
        74    1       34.225323957561       0.000000000000       5.094938664989
        75    1       32.423991117689       0.000000000000       0.000000000000
        76    1       34.225323957561       2.206173157302       1.273734666247
        77    1       33.324657537625       2.206173157302       6.368673331236
        78    1       33.324657537625       0.000000000000       2.547469332495
        79    1       35.125990377497       2.206173157302       3.821203998742
        80    1       36.927323217368       0.000000000000       5.094938664989
        81    1       35.125990377497       0.000000000000       0.000000000000
        82    1       36.927323217368       2.206173157302       1.273734666247
        83    1       36.026656797433       2.206173157302       6.368673331236
        84    1       36.026656797433       0.000000000000       2.547469332495
        85    1       37.827989637304       2.206173157302       3.821203998742
        86    1       39.629322477176       0.000000000000       5.094938664989
        87    1       37.827989637304       0.000000000000       0.000000000000
        88    1       39.629322477176       2.206173157302       1.273734666247
        89    1       38.728656057240       2.206173157302       6.368673331236
        90    1       38.728656057240       0.000000000000       2.547469332495
        91    1       40.529988897112       2.206173157302       3.821203998742
        92    1       42.331321736983       0.000000000000       5.094938664989
        93    1       40.529988897112       0.000000000000       0.000000000000
        94    1       42.331321736983       2.206173157302       1.273734666247
        95    1       41.430655317048       2.206173157302       6.368673331236
        96    1       41.430655317048       0.000000000000       2.547469332495
        97    1       43.231988156919       2.206173157302       3.821203998742
        98    1       45.033320996791       0.000000000000       5.094938664989
        99    1       43.231988156919       0.000000000000       0.000000000000
       100    1       45.033320996791       2.206173157302       1.273734666247
       101    1       44.132654576855       2.206173157302       6.368673331236
       102    1       44.132654576855       0.000000000000       2.547469332495
       103    1       45.933987416727       2.206173157302       3.821203998742
       104    1       47.735320256598       0.000000000000       5.094938664989
       105    1       45.933987416727       0.000000000000       0.000000000000
       106    1       47.735320256598       2.206173157302       1.273734666247
       107    1       46.834653836662       2.206173157302       6.368673331236
       108    1       46.834653836662       0.000000000000       2.547469332495
       109    1       48.635986676534       2.206173157302       3.821203998742
       110    1       50.437319516406       0.000000000000       5.094938664989
       111    1       48.635986676534       0.000000000000       0.000000000000
       112    1       50.437319516406       2.206173157302       1.273734666247
       113    1       49.536653096470       2.206173157302       6.368673331236
       114    1       49.536653096470       0.000000000000       2.547469332495
       115    1       51.337985936342       2.206173157302       3.821203998742
       116    1       53.139318776213       0.000000000000       5.094938664989
       117    1       51.337985936342       0.000000000000       0.000000000000
       118    1       53.139318776213       2.206173157302       1.273734666247
       119    1       52.238652356277       2.206173157302       6.368673331236
       120    1       52.238652356277       0.000000000000       2.547469332495
       121    1       54.039985196149       2.206173157302       3.821203998742
       122    1       55.841318036021       0.000000000000       5.094938664989
       123    1       54.039985196149       0.000000000000       0.000000000000
       124    1       55.841318036021       2.206173157302       1.273734666247
       125    1       54.940651616085       2.206173157302       6.368673331236
       126    1       54.940651616085       0.000000000000       2.547469332495
       127    1       56.741984455956       2.206173157302       3.821203998742
       128    1       58.543317295828       0.000000000000       5.094938664989
       129    1       56.741984455956       0.000000000000       0.000000000000
       130    1       58.543317295828       2.206173157302       1.273734666247
       131    1       57.642650875892       2.206173157302       6.368673331236
       132    1       57.642650875892       0.000000000000       2.547469332495
       133    1       59.443983715764       2.206173157302       3.821203998742
       134    1       61.245316555636       0.000000000000       5.094938664989
       135    1       59.443983715764       0.000000000000       0.000000000000
       136    1       61.245316555636       2.206173157302       1.273734666247
       137    1       60.344650135700       2.206173157302       6.368673331236
       138    1       60.344650135700       0.000000000000       2.547469332495
       139    1       62.145982975571       2.206173157302       3.821203998742
       140    1       63.947315815443       0.000000000000       5.094938664989
       141    1       62.145982975571       0.000000000000       0.000000000000
       142    1       63.947315815443       2.206173157302       1.273734666247
       143    1       63.046649395507       2.206173157302       6.368673331236
       144    1       63.046649395507       0.000000000000       2.547469332495
       145    1        0.000000000000       6.618519471906       3.821203998742
       146    1        1.801332839872       4.412346314604       5.094938664989
       147    1        0.000000000000       4.412346314604       0.000000000000
       148    1        1.801332839872       6.618519471906       1.273734666247
       149    1        0.900666419936       6.618519471906       6.368673331236
       150    1        0.900666419936       4.412346314604       2.547469332495
       151    1        2.701999259807       6.618519471906       3.821203998742
       152    1        4.503332099679       4.412346314604       5.094938664989
       153    1        2.701999259807       4.412346314604       0.000000000000
       154    1        4.503332099679       6.618519471906       1.273734666247
       155    1        3.602665679743       6.618519471906       6.368673331236
       156    1        3.602665679743       4.412346314604       2.547469332495
       157    1        5.403998519615       6.618519471906       3.821203998742
       158    1        7.205331359487       4.412346314604       5.094938664989
       159    1        5.403998519615       4.412346314604       0.000000000000
       160    1        7.205331359487       6.618519471906       1.273734666247
       161    1        6.304664939551       6.618519471906       6.368673331236
       162    1        6.304664939551       4.412346314604       2.547469332495
       163    1        8.105997779422       6.618519471906       3.821203998742
       164    1        9.907330619294       4.412346314604       5.094938664989
       165    1        8.105997779422       4.412346314604       0.000000000000
       166    1        9.907330619294       6.618519471906       1.273734666247
       167    1        9.006664199358       6.618519471906       6.368673331236
       168    1        9.006664199358       4.412346314604       2.547469332495
       169    1       10.807997039230       6.618519471906       3.821203998742
       170    1       12.609329879101       4.412346314604       5.094938664989
       171    1       10.807997039230       4.412346314604       0.000000000000
       172    1       12.609329879101       6.618519471906       1.273734666247
       173    1       11.708663459166       6.618519471906       6.368673331236
       174    1       11.708663459166       4.412346314604       2.547469332495
       175    1       13.509996299037       6.618519471906       3.821203998742
       176    1       15.311329138909       4.412346314604       5.094938664989
       177    1       13.509996299037       4.412346314604       0.000000000000
       178    1       15.311329138909       6.618519471906       1.273734666247
       179    1       14.410662718973       6.618519471906       6.368673331236
       180    1       14.410662718973       4.412346314604       2.547469332495
       181    1       16.211995558845       6.618519471906       3.821203998742
       182    1       18.013328398716       4.412346314604       5.094938664989
       183    1       16.211995558845       4.412346314604       0.000000000000
       184    1       18.013328398716       6.618519471906       1.273734666247
       185    1       17.112661978781       6.618519471906       6.368673331236
       186    1       17.112661978781       4.412346314604       2.547469332495
       187    1       18.913994818652       6.618519471906       3.821203998742
       188    1       20.715327658524       4.412346314604       5.094938664989
       189    1       18.913994818652       4.412346314604       0.000000000000
       190    1       20.715327658524       6.618519471906       1.273734666247
       191    1       19.814661238588       6.618519471906       6.368673331236
       192    1       19.814661238588       4.412346314604       2.547469332495
       193    1       21.615994078460       6.618519471906       3.821203998742
       194    1       23.417326918331       4.412346314604       5.094938664989
       195    1       21.615994078460       4.412346314604       0.000000000000
       196    1       23.417326918331       6.618519471906       1.273734666247
       197    1       22.516660498395       6.618519471906       6.368673331236
       198    1       22.516660498395       4.412346314604       2.547469332495
       199    1       24.317993338267       6.618519471906       3.821203998742
       200    1       26.119326178139       4.412346314604       5.094938664989
       201    1       24.317993338267       4.412346314604       0.000000000000
       202    1       26.119326178139       6.618519471906       1.273734666247
       203    1       25.218659758203       6.618519471906       6.368673331236
       204    1       25.218659758203       4.412346314604       2.547469332495
       205    1       27.019992598074       6.618519471906       3.821203998742
       206    1       28.821325437946       4.412346314604       5.094938664989
       207    1       27.019992598074       4.412346314604       0.000000000000
       208    1       28.821325437946       6.618519471906       1.273734666247
       209    1       27.920659018010       6.618519471906       6.368673331236
       210    1       27.920659018010       4.412346314604       2.547469332495
       211    1       29.721991857882       6.618519471906       3.821203998742
       212    1       31.523324697754       4.412346314604       5.094938664989
       213    1       29.721991857882       4.412346314604       0.000000000000
       214    1       31.523324697754       6.618519471906       1.273734666247
       215    1       30.622658277818       6.618519471906       6.368673331236
       216    1       30.622658277818       4.412346314604       2.547469332495
       217    1       32.423991117689       6.618519471906       3.821203998742
       218    1       34.225323957561       4.412346314604       5.094938664989
       219    1       32.423991117689       4.412346314604       0.000000000000
       220    1       34.225323957561       6.618519471906       1.273734666247
       221    1       33.324657537625       6.618519471906       6.368673331236
       222    1       33.324657537625       4.412346314604       2.547469332495
       223    1       35.125990377497       6.618519471906       3.821203998742
       224    1       36.927323217368       4.412346314604       5.094938664989
       225    1       35.125990377497       4.412346314604       0.000000000000
       226    1       36.927323217368       6.618519471906       1.273734666247
       227    1       36.026656797433       6.618519471906       6.368673331236
       228    1       36.026656797433       4.412346314604       2.547469332495
       229    1       37.827989637304       6.618519471906       3.821203998742
       230    1       39.629322477176       4.412346314604       5.094938664989
       231    1       37.827989637304       4.412346314604       0.000000000000
       232    1       39.629322477176       6.618519471906       1.273734666247
       233    1       38.728656057240       6.618519471906       6.368673331236
       234    1       38.728656057240       4.412346314604       2.547469332495
       235    1       40.529988897112       6.618519471906       3.821203998742
       236    1       42.331321736983       4.412346314604       5.094938664989
       237    1       40.529988897112       4.412346314604       0.000000000000
       238    1       42.331321736983       6.618519471906       1.273734666247
       239    1       41.430655317048       6.618519471906       6.368673331236
       240    1       41.430655317048       4.412346314604       2.547469332495
       241    1       43.231988156919       6.618519471906       3.821203998742
       242    1       45.033320996791       4.412346314604       5.094938664989
       243    1       43.231988156919       4.412346314604       0.000000000000
       244    1       45.033320996791       6.618519471906       1.273734666247
       245    1       44.132654576855       6.618519471906       6.368673331236
       246    1       44.132654576855       4.412346314604       2.547469332495
       247    1       45.933987416727       6.618519471906       3.821203998742
       248    1       47.735320256598       4.412346314604       5.094938664989
       249    1       45.933987416727       4.412346314604       0.000000000000
       250    1       47.735320256598       6.618519471906       1.273734666247
       251    1       46.834653836662       6.618519471906       6.368673331236
       252    1       46.834653836662       4.412346314604       2.547469332495
       253    1       48.635986676534       6.618519471906       3.821203998742
       254    1       50.437319516406       4.412346314604       5.094938664989
       255    1       48.635986676534       4.412346314604       0.000000000000
       256    1       50.437319516406       6.618519471906       1.273734666247
       257    1       49.536653096470       6.618519471906       6.368673331236
       258    1       49.536653096470       4.412346314604       2.547469332495
       259    1       51.337985936342       6.618519471906       3.821203998742
       260    1       53.139318776213       4.412346314604       5.094938664989
       261    1       51.337985936342       4.412346314604       0.000000000000
       262    1       53.139318776213       6.618519471906       1.273734666247
       263    1       52.238652356277       6.618519471906       6.368673331236
       264    1       52.238652356277       4.412346314604       2.547469332495
       265    1       54.039985196149       6.618519471906       3.821203998742
       266    1       55.841318036021       4.412346314604       5.094938664989
       267    1       54.039985196149       4.412346314604       0.000000000000
       268    1       55.841318036021       6.618519471906       1.273734666247
       269    1       54.940651616085       6.618519471906       6.368673331236
       270    1       54.940651616085       4.412346314604       2.547469332495
       271    1       56.741984455956       6.618519471906       3.821203998742
       272    1       58.543317295828       4.412346314604       5.094938664989
       273    1       56.741984455956       4.412346314604       0.000000000000
       274    1       58.543317295828       6.618519471906       1.273734666247
       275    1       57.642650875892       6.618519471906       6.368673331236
       276    1       57.642650875892       4.412346314604       2.547469332495
       277    1       59.443983715764       6.618519471906       3.821203998742
       278    1       61.245316555636       4.412346314604       5.094938664989
       279    1       59.443983715764       4.412346314604       0.000000000000
       280    1       61.245316555636       6.618519471906       1.273734666247
       281    1       60.344650135700       6.618519471906       6.368673331236
       282    1       60.344650135700       4.412346314604       2.547469332495
       283    1       62.145982975571       6.618519471906       3.821203998742
       284    1       63.947315815443       4.412346314604       5.094938664989
       285    1       62.145982975571       4.412346314604       0.000000000000
       286    1       63.947315815443       6.618519471906       1.273734666247
       287    1       63.046649395507       6.618519471906       6.368673331236
       288    1       63.046649395507       4.412346314604       2.547469332495
       289    1        0.000000000000      11.030865786510       3.821203998742
       290    1        1.801332839872       8.824692629208       5.094938664989
       291    1        0.000000000000       8.824692629208       0.000000000000
       292    1        1.801332839872      11.030865786510       1.273734666247
       293    1        0.900666419936      11.030865786510       6.368673331236
       294    1        0.900666419936       8.824692629208       2.547469332495
       295    1        2.701999259807      11.030865786510       3.821203998742
       296    1        4.503332099679       8.824692629208       5.094938664989
       297    1        2.701999259807       8.824692629208       0.000000000000
       298    1        4.503332099679      11.030865786510       1.273734666247
       299    1        3.602665679743      11.030865786510       6.368673331236
       300    1        3.602665679743       8.824692629208       2.547469332495
       301    1        5.403998519615      11.030865786510       3.821203998742
       302    1        7.205331359487       8.824692629208       5.094938664989
       303    1        5.403998519615       8.824692629208       0.000000000000
       304    1        7.205331359487      11.030865786510       1.273734666247
       305    1        6.304664939551      11.030865786510       6.368673331236
       306    1        6.304664939551       8.824692629208       2.547469332495
       307    1        8.105997779422      11.030865786510       3.821203998742
       308    1        9.907330619294       8.824692629208       5.094938664989
       309    1        8.105997779422       8.824692629208       0.000000000000
       310    1        9.907330619294      11.030865786510       1.273734666247
       311    1        9.006664199358      11.030865786510       6.368673331236
       312    1        9.006664199358       8.824692629208       2.547469332495
       313    1       10.807997039230      11.030865786510       3.821203998742
       314    1       12.609329879101       8.824692629208       5.094938664989
       315    1       10.807997039230       8.824692629208       0.000000000000
       316    1       12.609329879101      11.030865786510       1.273734666247
       317    1       11.708663459166      11.030865786510       6.368673331236
       318    1       11.708663459166       8.824692629208       2.547469332495
       319    1       13.509996299037      11.030865786510       3.821203998742
       320    1       15.311329138909       8.824692629208       5.094938664989
       321    1       13.509996299037       8.824692629208       0.000000000000
       322    1       15.311329138909      11.030865786510       1.273734666247
       323    1       14.410662718973      11.030865786510       6.368673331236
       324    1       14.410662718973       8.824692629208       2.547469332495
       325    1       16.211995558845      11.030865786510       3.821203998742
       326    1       18.013328398716       8.824692629208       5.094938664989
       327    1       16.211995558845       8.824692629208       0.000000000000
       328    1       18.013328398716      11.030865786510       1.273734666247
       329    1       17.112661978781      11.030865786510       6.368673331236
       330    1       17.112661978781       8.824692629208       2.547469332495
       331    1       18.913994818652      11.030865786510       3.821203998742
       332    1       20.715327658524       8.824692629208       5.094938664989
       333    1       18.913994818652       8.824692629208       0.000000000000
       334    1       20.715327658524      11.030865786510       1.273734666247
       335    1       19.814661238588      11.030865786510       6.368673331236
       336    1       19.814661238588       8.824692629208       2.547469332495
       337    1       21.615994078460      11.030865786510       3.821203998742
       338    1       23.417326918331       8.824692629208       5.094938664989
       339    1       21.615994078460       8.824692629208       0.000000000000
       340    1       23.417326918331      11.030865786510       1.273734666247
       341    1       22.516660498395      11.030865786510       6.368673331236
       342    1       22.516660498395       8.824692629208       2.547469332495
       343    1       24.317993338267      11.030865786510       3.821203998742
       344    1       26.119326178139       8.824692629208       5.094938664989
       345    1       24.317993338267       8.824692629208       0.000000000000
       346    1       26.119326178139      11.030865786510       1.273734666247
       347    1       25.218659758203      11.030865786510       6.368673331236
       348    1       25.218659758203       8.824692629208       2.547469332495
       349    1       27.019992598074      11.030865786510       3.821203998742
       350    1       28.821325437946       8.824692629208       5.094938664989
       351    1       27.019992598074       8.824692629208       0.000000000000
       352    1       28.821325437946      11.030865786510       1.273734666247
       353    1       27.920659018010      11.030865786510       6.368673331236
       354    1       27.920659018010       8.824692629208       2.547469332495
       355    1       29.721991857882      11.030865786510       3.821203998742
       356    1       31.523324697754       8.824692629208       5.094938664989
       357    1       29.721991857882       8.824692629208       0.000000000000
       358    1       31.523324697754      11.030865786510       1.273734666247
       359    1       30.622658277818      11.030865786510       6.368673331236
       360    1       30.622658277818       8.824692629208       2.547469332495
       361    1       32.423991117689      11.030865786510       3.821203998742
       362    1       34.225323957561       8.824692629208       5.094938664989
       363    1       32.423991117689       8.824692629208       0.000000000000
       364    1       34.225323957561      11.030865786510       1.273734666247
       365    1       33.324657537625      11.030865786510       6.368673331236
       366    1       33.324657537625       8.824692629208       2.547469332495
       367    1       35.125990377497      11.030865786510       3.821203998742
       368    1       36.927323217368       8.824692629208       5.094938664989
       369    1       35.125990377497       8.824692629208       0.000000000000
       370    1       36.927323217368      11.030865786510       1.273734666247