/home/sez26/TIGP-IIP/HEA_compression/LMP_Files/111/HEA_II.lmp (written by ASE) 

4032 	 atoms 
5  atom types
0.0      64.847982239999993  xlo xhi
0.0              30.8864242  ylo yhi
0.0      30.569631990000001  zlo zhi


Atoms 

     1   2                       0      2.2061731600000001      3.8212039999999998
     2   1      1.8013328399999999                       0      5.0949386600000004
     3   1                       0                       0                       0
     4   1      1.8013328399999999      2.2061731600000001      1.2737346700000001
     5   1              2.70199926      2.2061731600000001      3.8212039999999998
     6   1      4.5033320999999997                       0      5.0949386600000004
     7   2              2.70199926                       0                       0
     8   2      4.5033320999999997      2.2061731600000001      1.2737346700000001
     9   1              5.40399852      2.2061731600000001      3.8212039999999998
    10   1      7.2053313599999997                       0      5.0949386600000004
    11   2              5.40399852                       0                       0
    12   2      7.2053313599999997      2.2061731600000001      1.2737346700000001
    13   2      8.1059977799999992      2.2061731600000001      3.8212039999999998
    14   1      9.9073306199999998                       0      5.0949386600000004
    15   2      8.1059977799999992                       0                       0
    16   2      9.9073306199999998      2.2061731600000001      1.2737346700000001
    17   2             10.80799704      2.2061731600000001      3.8212039999999998
    18   1      12.609329880000001                       0      5.0949386600000004
    19   2             10.80799704                       0                       0
    20   2      12.609329880000001      2.2061731600000001      1.2737346700000001
    21   1      13.509996299999999      2.2061731600000001      3.8212039999999998
    22   1             15.31132914                       0      5.0949386600000004
    23   2      13.509996299999999                       0                       0
    24   1             15.31132914      2.2061731600000001      1.2737346700000001
    25   1      16.211995559999998      2.2061731600000001      3.8212039999999998
    26   2      18.013328399999999                       0      5.0949386600000004
    27   2      16.211995559999998                       0                       0
    28   1      18.013328399999999      2.2061731600000001      1.2737346700000001
    29   1      18.913994819999999      2.2061731600000001      3.8212039999999998
    30   2             20.71532766                       0      5.0949386600000004
    31   1      18.913994819999999                       0                       0
    32   1             20.71532766      2.2061731600000001      1.2737346700000001
    33   1             21.61599408      2.2061731600000001      3.8212039999999998
    34   2      23.417326920000001                       0      5.0949386600000004
    35   1             21.61599408                       0                       0
    36   1      23.417326920000001      2.2061731600000001      1.2737346700000001
    37   1      24.317993340000001      2.2061731600000001      3.8212039999999998
    38   2      26.119326180000002                       0      5.0949386600000004
    39   2      24.317993340000001                       0                       0
    40   1      26.119326180000002      2.2061731600000001      1.2737346700000001
    41   1      27.019992599999998      2.2061731600000001      3.8212039999999998
    42   1      28.821325439999999                       0      5.0949386600000004
    43   2      27.019992599999998                       0                       0
    44   2      28.821325439999999      2.2061731600000001      1.2737346700000001
    45   2      29.721991859999999      2.2061731600000001      3.8212039999999998
    46   1              31.5233247                       0      5.0949386600000004
    47   1      29.721991859999999                       0                       0
    48   1              31.5233247      2.2061731600000001      1.2737346700000001
    49   1      32.423991119999997      2.2061731600000001      3.8212039999999998
    50   2      34.225323959999997                       0      5.0949386600000004
    51   2      32.423991119999997                       0                       0
    52   2      34.225323959999997      2.2061731600000001      1.2737346700000001
    53   1      35.125990379999998      2.2061731600000001      3.8212039999999998
    54   2      36.927323219999998                       0      5.0949386600000004
    55   1      35.125990379999998                       0                       0
    56   1      36.927323219999998      2.2061731600000001      1.2737346700000001
    57   1      37.827989639999998      2.2061731600000001      3.8212039999999998
    58   1      39.629322479999999                       0      5.0949386600000004
    59   1      37.827989639999998                       0                       0
    60   2      39.629322479999999      2.2061731600000001      1.2737346700000001
    61   2      40.529988899999999      2.2061731600000001      3.8212039999999998
    62   1             42.33132174                       0      5.0949386600000004
    63   1      40.529988899999999                       0                       0
    64   1             42.33132174      2.2061731600000001      1.2737346700000001
    65   1             43.23198816      2.2061731600000001      3.8212039999999998
    66   1      45.033321000000001                       0      5.0949386600000004
    67   1             43.23198816                       0                       0
    68   2      45.033321000000001      2.2061731600000001      1.2737346700000001
    69   1      45.933987420000001      2.2061731600000001      3.8212039999999998
    70   1      47.735320260000002                       0      5.0949386600000004
    71   2      45.933987420000001                       0                       0
    72   1      47.735320260000002      2.2061731600000001      1.2737346700000001
    73   2      48.635986680000002      2.2061731600000001      3.8212039999999998
    74   1      50.437319520000003                       0      5.0949386600000004
    75   1      48.635986680000002                       0                       0
    76   2      50.437319520000003      2.2061731600000001      1.2737346700000001
    77   1      51.337985940000003      2.2061731600000001      3.8212039999999998
    78   2      53.139318780000004                       0      5.0949386600000004
    79   2      51.337985940000003                       0                       0
    80   2      53.139318780000004      2.2061731600000001      1.2737346700000001
    81   2      54.039985199999997      2.2061731600000001      3.8212039999999998
    82   2      55.841318039999997                       0      5.0949386600000004
    83   2      54.039985199999997                       0                       0
    84   1      55.841318039999997      2.2061731600000001      1.2737346700000001
    85   2      56.741984459999998      2.2061731600000001      3.8212039999999998
    86   1      58.543317299999998                       0      5.0949386600000004
    87   2      56.741984459999998                       0                       0
    88   2      58.543317299999998      2.2061731600000001      1.2737346700000001
    89   2      59.443983719999999      2.2061731600000001      3.8212039999999998
    90   1      61.245316559999999                       0      5.0949386600000004
    91   2      59.443983719999999                       0                       0
    92   1      61.245316559999999      2.2061731600000001      1.2737346700000001
    93   1      62.145982979999999      2.2061731600000001      3.8212039999999998
    94   1             63.94731582                       0      5.0949386600000004
    95   1      62.145982979999999                       0                       0
    96   1             63.94731582      2.2061731600000001      1.2737346700000001
    97   1                       0      6.6185194699999998      3.8212039999999998
    98   1      1.8013328399999999      4.4123463100000002      5.0949386600000004
    99   1                       0      4.4123463100000002                       0
   100   1      1.8013328399999999      6.6185194699999998      1.2737346700000001
   101   1              2.70199926      6.6185194699999998      3.8212039999999998
   102   2      4.5033320999999997      4.4123463100000002      5.0949386600000004
   103   1              2.70199926      4.4123463100000002                       0
   104   1      4.5033320999999997      6.6185194699999998      1.2737346700000001
   105   2              5.40399852      6.6185194699999998      3.8212039999999998
   106   2      7.2053313599999997      4.4123463100000002      5.0949386600000004
   107   1              5.40399852      4.4123463100000002                       0
   108   2      7.2053313599999997      6.6185194699999998      1.2737346700000001
   109   1      8.1059977799999992      6.6185194699999998      3.8212039999999998
   110   1      9.9073306199999998      4.4123463100000002      5.0949386600000004
   111   2      8.1059977799999992      4.4123463100000002                       0
   112   1      9.9073306199999998      6.6185194699999998      1.2737346700000001
   113   2             10.80799704      6.6185194699999998      3.8212039999999998
   114   1      12.609329880000001      4.4123463100000002      5.0949386600000004
   115   1             10.80799704      4.4123463100000002                       0
   116   2      12.609329880000001      6.6185194699999998      1.2737346700000001
   117   1      13.509996299999999      6.6185194699999998      3.8212039999999998
   118   2             15.31132914      4.4123463100000002      5.0949386600000004
   119   2      13.509996299999999      4.4123463100000002                       0
   120   2             15.31132914      6.6185194699999998      1.2737346700000001
   121   1      16.211995559999998      6.6185194699999998      3.8212039999999998
   122   1      18.013328399999999      4.4123463100000002      5.0949386600000004
   123   1      16.211995559999998      4.4123463100000002                       0
   124   1      18.013328399999999      6.6185194699999998      1.2737346700000001
   125   1      18.913994819999999      6.6185194699999998      3.8212039999999998
   126   2             20.71532766      4.4123463100000002      5.0949386600000004
   127   1      18.913994819999999      4.4123463100000002                       0
   128   1             20.71532766      6.6185194699999998      1.2737346700000001
   129   2             21.61599408      6.6185194699999998      3.8212039999999998
   130   2      23.417326920000001      4.4123463100000002      5.0949386600000004
   131   1             21.61599408      4.4123463100000002                       0
   132   1      23.417326920000001      6.6185194699999998      1.2737346700000001
   133   1      24.317993340000001      6.6185194699999998      3.8212039999999998
   134   1      26.119326180000002      4.4123463100000002      5.0949386600000004
   135   1      24.317993340000001      4.4123463100000002                       0
   136   2      26.119326180000002      6.6185194699999998      1.2737346700000001
   137   1      27.019992599999998      6.6185194699999998      3.8212039999999998
   138   1      28.821325439999999      4.4123463100000002      5.0949386600000004
   139   2      27.019992599999998      4.4123463100000002                       0
   140   1      28.821325439999999      6.6185194699999998      1.2737346700000001
   141   1      29.721991859999999      6.6185194699999998      3.8212039999999998
   142   2              31.5233247      4.4123463100000002      5.0949386600000004
   143   2      29.721991859999999      4.4123463100000002                       0
   144   1              31.5233247      6.6185194699999998      1.2737346700000001
   145   1      32.423991119999997      6.6185194699999998      3.8212039999999998
   146   1      34.225323959999997      4.4123463100000002      5.0949386600000004
   147   1      32.423991119999997      4.4123463100000002                       0
   148   2      34.225323959999997      6.6185194699999998      1.2737346700000001
   149   2      35.125990379999998      6.6185194699999998      3.8212039999999998
   150   2      36.927323219999998      4.4123463100000002      5.0949386600000004
   151   2      35.125990379999998      4.4123463100000002                       0
   152   2      36.927323219999998      6.6185194699999998      1.2737346700000001
   153   1      37.827989639999998      6.6185194699999998      3.8212039999999998
   154   2      39.629322479999999      4.4123463100000002      5.0949386600000004
   155   1      37.827989639999998      4.4123463100000002                       0
   156   1      39.629322479999999      6.6185194699999998      1.2737346700000001
   157   2      40.529988899999999      6.6185194699999998      3.8212039999999998
   158   1             42.33132174      4.4123463100000002      5.0949386600000004
   159   2      40.529988899999999      4.4123463100000002                       0
   160   1             42.33132174      6.6185194699999998      1.2737346700000001
   161   2             43.23198816      6.6185194699999998      3.8212039999999998
   162   1      45.033321000000001      4.4123463100000002      5.0949386600000004
   163   2             43.23198816      4.4123463100000002                       0
   164   2      45.033321000000001      6.6185194699999998      1.2737346700000001
   165   1      45.933987420000001      6.6185194699999998      3.8212039999999998
   166   1      47.735320260000002      4.4123463100000002      5.0949386600000004
   167   2      45.933987420000001      4.4123463100000002                       0
   168   2      47.735320260000002      6.6185194699999998      1.2737346700000001
   169   1      48.635986680000002      6.6185194699999998      3.8212039999999998
   170   2      50.437319520000003      4.4123463100000002      5.0949386600000004
   171   1      48.635986680000002      4.4123463100000002                       0
   172   2      50.437319520000003      6.6185194699999998      1.2737346700000001
   173   2      51.337985940000003      6.6185194699999998      3.8212039999999998
   174   2      53.139318780000004      4.4123463100000002      5.0949386600000004
   175   1      51.337985940000003      4.4123463100000002                       0
   176   2      53.139318780000004      6.6185194699999998      1.2737346700000001
   177   1      54.039985199999997      6.6185194699999998      3.8212039999999998
   178   2      55.841318039999997      4.4123463100000002      5.0949386600000004
   179   2      54.039985199999997      4.4123463100000002                       0
   180   1      55.841318039999997      6.6185194699999998      1.2737346700000001
   181   2      56.741984459999998      6.6185194699999998      3.8212039999999998
   182   1      58.543317299999998      4.4123463100000002      5.0949386600000004
   183   1      56.741984459999998      4.4123463100000002                       0
   184   2      58.543317299999998      6.6185194699999998      1.2737346700000001
   185   2      59.443983719999999      6.6185194699999998      3.8212039999999998
   186   1      61.245316559999999      4.4123463100000002      5.0949386600000004
   187   1      59.443983719999999      4.4123463100000002                       0
   188   1      61.245316559999999      6.6185194699999998      1.2737346700000001
   189   2      62.145982979999999      6.6185194699999998      3.8212039999999998
   190   2             63.94731582      4.4123463100000002      5.0949386600000004
   191   1      62.145982979999999      4.4123463100000002                       0
   192   1             63.94731582      6.6185194699999998      1.2737346700000001
   193   1                       0             11.03086579      3.8212039999999998
   194   2      1.8013328399999999      8.8246926299999995      5.0949386600000004
   195   1                       0      8.8246926299999995                       0
   196   2      1.8013328399999999             11.03086579      1.2737346700000001
   197   2              2.70199926             11.03086579      3.8212039999999998
   198   1      4.5033320999999997      8.8246926299999995      5.0949386600000004
   199   1              2.70199926      8.8246926299999995                       0
   200   1      4.5033320999999997             11.03086579      1.2737346700000001
   201   2              5.40399852             11.03086579      3.8212039999999998
   202   1      7.2053313599999997      8.8246926299999995      5.0949386600000004
   203   2              5.40399852      8.8246926299999995                       0
   204   2      7.2053313599999997             11.03086579      1.2737346700000001
   205   2      8.1059977799999992             11.03086579      3.8212039999999998
   206   2      9.9073306199999998      8.8246926299999995      5.0949386600000004
   207   2      8.1059977799999992      8.8246926299999995                       0
   208   1      9.9073306199999998             11.03086579      1.2737346700000001
   209   2             10.80799704             11.03086579      3.8212039999999998
   210   1      12.609329880000001      8.8246926299999995      5.0949386600000004
   211   2             10.80799704      8.8246926299999995                       0
   212   1      12.609329880000001             11.03086579      1.2737346700000001
   213   1      13.509996299999999             11.03086579      3.8212039999999998
   214   2             15.31132914      8.8246926299999995      5.0949386600000004
   215   2      13.509996299999999      8.8246926299999995                       0
   216   1             15.31132914             11.03086579      1.2737346700000001
   217   1      16.211995559999998             11.03086579      3.8212039999999998
   218   2      18.013328399999999      8.8246926299999995      5.0949386600000004
   219   1      16.211995559999998      8.8246926299999995                       0
   220   1      18.013328399999999             11.03086579      1.2737346700000001
   221   2      18.913994819999999             11.03086579      3.8212039999999998
   222   2             20.71532766      8.8246926299999995      5.0949386600000004
   223   2      18.913994819999999      8.8246926299999995                       0
   224   1             20.71532766             11.03086579      1.2737346700000001
   225   2             21.61599408             11.03086579      3.8212039999999998
   226   1      23.417326920000001      8.8246926299999995      5.0949386600000004
   227   2             21.61599408      8.8246926299999995                       0
   228   2      23.417326920000001             11.03086579      1.2737346700000001
   229   2      24.317993340000001             11.03086579      3.8212039999999998
   230   2      26.119326180000002      8.8246926299999995      5.0949386600000004
   231   2      24.317993340000001      8.8246926299999995                       0
   232   2      26.119326180000002             11.03086579      1.2737346700000001
   233   1      27.019992599999998             11.03086579      3.8212039999999998
   234   2      28.821325439999999      8.8246926299999995      5.0949386600000004
   235   2      27.019992599999998      8.8246926299999995                       0
   236   1      28.821325439999999             11.03086579      1.2737346700000001
   237   1      29.721991859999999             11.03086579      3.8212039999999998
   238   1              31.5233247      8.8246926299999995      5.0949386600000004
   239   2      29.721991859999999      8.8246926299999995                       0
   240   2              31.5233247             11.03086579      1.2737346700000001
   241   1      32.423991119999997             11.03086579      3.8212039999999998
   242   2      34.225323959999997      8.8246926299999995      5.0949386600000004
   243   2      32.423991119999997      8.8246926299999995                       0
   244   2      34.225323959999997             11.03086579      1.2737346700000001
   245   1      35.125990379999998             11.03086579      3.8212039999999998
   246   2      36.927323219999998      8.8246926299999995      5.0949386600000004
   247   1      35.125990379999998      8.8246926299999995                       0
   248   1      36.927323219999998             11.03086579      1.2737346700000001
   249   2      37.827989639999998             11.03086579      3.8212039999999998
   250   1      39.629322479999999      8.8246926299999995      5.0949386600000004
   251   1      37.827989639999998      8.8246926299999995                       0
   252   2      39.629322479999999             11.03086579      1.2737346700000001
   253   1      40.529988899999999             11.03086579      3.8212039999999998
   254   1             42.33132174      8.8246926299999995      5.0949386600000004
   255   2      40.529988899999999      8.8246926299999995                       0
   256   2             42.33132174             11.03086579      1.2737346700000001
   257   2             43.23198816             11.03086579      3.8212039999999998
   258   2      45.033321000000001      8.8246926299999995      5.0949386600000004
   259   1             43.23198816      8.8246926299999995                       0
   260   1      45.033321000000001             11.03086579      1.2737346700000001
   261   2      45.933987420000001             11.03086579      3.8212039999999998
   262   2      47.735320260000002      8.8246926299999995      5.0949386600000004
   263   1      45.933987420000001      8.8246926299999995                       0
   264   1      47.735320260000002             11.03086579      1.2737346700000001
   265   2      48.635986680000002             11.03086579      3.8212039999999998
   266   2      50.437319520000003      8.8246926299999995      5.0949386600000004
   267   1      48.635986680000002      8.8246926299999995                       0
   268   2      50.437319520000003             11.03086579      1.2737346700000001
   269   1      51.337985940000003             11.03086579      3.8212039999999998
   270   2      53.139318780000004      8.8246926299999995      5.0949386600000004
   271   1      51.337985940000003      8.8246926299999995                       0
   272   2      53.139318780000004             11.03086579      1.2737346700000001
   273   2      54.039985199999997             11.03086579      3.8212039999999998
   274   2      55.841318039999997      8.8246926299999995      5.0949386600000004
   275   1      54.039985199999997      8.8246926299999995                       0
   276   2      55.841318039999997             11.03086579      1.2737346700000001
   277   2      56.741984459999998             11.03086579      3.8212039999999998
   278   2      58.543317299999998      8.8246926299999995      5.0949386600000004
   279   2      56.741984459999998      8.8246926299999995                       0
   280   1      58.543317299999998             11.03086579      1.2737346700000001
   281   2      59.443983719999999             11.03086579      3.8212039999999998
   282   2      61.245316559999999      8.8246926299999995      5.0949386600000004
   283   1      59.443983719999999      8.8246926299999995                       0
   284   2      61.245316559999999             11.03086579      1.2737346700000001
   285   2      62.145982979999999             11.03086579      3.8212039999999998
   286   2             63.94731582      8.8246926299999995      5.0949386600000004
   287   1      62.145982979999999      8.8246926299999995                       0
   288   2             63.94731582             11.03086579      1.2737346700000001
   289   2                       0              15.4432121      3.8212039999999998
   290   2      1.8013328399999999             13.23703894      5.0949386600000004
   291   2                       0             13.23703894                       0
   292   2      1.8013328399999999              15.4432121      1.2737346700000001
   293   1              2.70199926              15.4432121      3.8212039999999998
   294   1      4.5033320999999997             13.23703894      5.0949386600000004
   295   1              2.70199926             13.23703894                       0
   296   2      4.5033320999999997              15.4432121      1.2737346700000001
   297   2              5.40399852              15.4432121      3.8212039999999998
   298   1      7.2053313599999997             13.23703894      5.0949386600000004
   299   1              5.40399852             13.23703894                       0
   300   2      7.2053313599999997              15.4432121      1.2737346700000001
   301   1      8.1059977799999992              15.4432121      3.8212039999999998
   302   1      9.9073306199999998             13.23703894      5.0949386600000004
   303   2      8.1059977799999992             13.23703894                       0
   304   1      9.9073306199999998              15.4432121      1.2737346700000001
   305   2             10.80799704              15.4432121      3.8212039999999998
   306   2      12.609329880000001             13.23703894      5.0949386600000004
   307   2             10.80799704             13.23703894                       0
   308   1      12.609329880000001              15.4432121      1.2737346700000001
   309   2      13.509996299999999              15.4432121      3.8212039999999998
   310   2             15.31132914             13.23703894      5.0949386600000004
   311   2      13.509996299999999             13.23703894                       0
   312   2             15.31132914              15.4432121      1.2737346700000001
   313   2      16.211995559999998              15.4432121      3.8212039999999998
   314   2      18.013328399999999             13.23703894      5.0949386600000004
   315   1      16.211995559999998             13.23703894                       0
   316   2      18.013328399999999              15.4432121      1.2737346700000001
   317   1      18.913994819999999              15.4432121      3.8212039999999998
   318   1             20.71532766             13.23703894      5.0949386600000004
   319   1      18.913994819999999             13.23703894                       0
   320   1             20.71532766              15.4432121      1.2737346700000001
   321   1             21.61599408              15.4432121      3.8212039999999998
   322   1      23.417326920000001             13.23703894      5.0949386600000004
   323   1             21.61599408             13.23703894                       0
   324   1      23.417326920000001              15.4432121      1.2737346700000001
   325   2      24.317993340000001              15.4432121      3.8212039999999998
   326   2      26.119326180000002             13.23703894      5.0949386600000004
   327   2      24.317993340000001             13.23703894                       0
   328   1      26.119326180000002              15.4432121      1.2737346700000001
   329   1      27.019992599999998              15.4432121      3.8212039999999998
   330   2      28.821325439999999             13.23703894      5.0949386600000004
   331   2      27.019992599999998             13.23703894                       0
   332   2      28.821325439999999              15.4432121      1.2737346700000001
   333   2      29.721991859999999              15.4432121      3.8212039999999998
   334   2              31.5233247             13.23703894      5.0949386600000004
   335   2      29.721991859999999             13.23703894                       0
   336   1              31.5233247              15.4432121      1.2737346700000001
   337   2      32.423991119999997              15.4432121      3.8212039999999998
   338   2      34.225323959999997             13.23703894      5.0949386600000004
   339   1      32.423991119999997             13.23703894                       0
   340   1      34.225323959999997              15.4432121      1.2737346700000001
   341   2      35.125990379999998              15.4432121      3.8212039999999998
   342   2      36.927323219999998             13.23703894      5.0949386600000004
   343   2      35.125990379999998             13.23703894                       0
   344   1      36.927323219999998              15.4432121      1.2737346700000001
   345   2      37.827989639999998              15.4432121      3.8212039999999998
   346   1      39.629322479999999             13.23703894      5.0949386600000004
   347   2      37.827989639999998             13.23703894                       0
   348   1      39.629322479999999              15.4432121      1.2737346700000001
   349   1      40.529988899999999              15.4432121      3.8212039999999998
   350   2             42.33132174             13.23703894      5.0949386600000004
   351   1      40.529988899999999             13.23703894                       0
   352   2             42.33132174              15.4432121      1.2737346700000001
   353   2             43.23198816              15.4432121      3.8212039999999998
   354   1      45.033321000000001             13.23703894      5.0949386600000004
   355   1             43.23198816             13.23703894                       0
   356   1      45.033321000000001              15.4432121      1.2737346700000001
   357   2      45.933987420000001              15.4432121      3.8212039999999998
   358   1      47.735320260000002             13.23703894      5.0949386600000004