/home/sez26/TIGP-IIP/HEA_dislocation/Screw/HEA_III.lmp (written by ASE) 

11664 	 atoms 
5  atom types
0.0      56.159999999999997  xlo xhi
0.0      56.159999999999997  ylo yhi
0.0      56.159999999999997  zlo zhi


Atoms 

     1   2                       0     -1.1699999999999999                       0
     2   2      3.1200000000000001     -1.1991759900000001                       0
     3   2      6.2400000000000002     -1.2317501399999999                       0
     4   2      9.3599999999999994             -1.26801941                       0
     5   1                   12.48             -1.30819343                       0
     6   1                    15.6     -1.3523251000000001                       0
     7   2      18.719999999999999     -1.4002304400000001                       0
     8   4                   21.84               -1.451417                       0
     9   1      24.960000000000001     -1.5050516700000001                       0
    10   1      28.079999999999998      1.5600000000000001                       0
    11   2      31.199999999999999      1.5050516700000001                       0
    12   4                   34.32                1.451417                       0
    13   2      37.439999999999998      1.4002304400000001                       0
    14   4      40.560000000000002      1.3523251000000001                       0
    15   1                   43.68              1.30819343                       0
    16   2      46.799999999999997              1.26801941                       0
    17   2      49.920000000000002      1.2317501399999999                       0
    18   1      53.039999999999999      1.1991759900000001                       0
    19   1                       0                    1.95                       0
    20   1      3.1200000000000001              1.92082401                       0
    21   2      6.2400000000000002      1.8882498599999999                       0
    22   2      9.3599999999999994      1.8519805899999999                       0
    23   1                   12.48      1.8118065699999999                       0
    24   2                    15.6               1.7676749                       0
    25   2      18.719999999999999              1.71976956                       0
    26   2                   21.84      1.6685829999999999                       0
    27   1      24.960000000000001              1.61494833                       0
    28   4      28.079999999999998      4.6799999999999997                       0
    29   2      31.199999999999999      4.6250516700000004                       0
    30   1                   34.32      4.5714170000000003                       0
    31   1      37.439999999999998      4.5202304399999997                       0
    32   1      40.560000000000002      4.4723250999999999                       0
    33   2                   43.68      4.4281934300000003                       0
    34   1      46.799999999999997      4.3880194100000001                       0
    35   2      49.920000000000002              4.35175014                       0
    36   1      53.039999999999999      4.3191759899999997                       0
    37   1                       0      5.0700000000000003                       0
    38   1      3.1200000000000001      5.0408240099999997                       0
    39   1      6.2400000000000002      5.0082498600000003                       0
    40   1      9.3599999999999994      4.9719805900000003                       0
    41   2                   12.48              4.93180657                       0
    42   2                    15.6      4.8876749000000004                       0
    43   4      18.719999999999999      4.8397695599999997                       0
    44   2                   21.84                4.788583                       0
    45   1      24.960000000000001      4.7349483299999999                       0
    46   4      28.079999999999998      7.7999999999999998                       0
    47   2      31.199999999999999      7.7450516699999996                       0
    48   2                   34.32      7.6914170000000004                       0
    49   2      37.439999999999998      7.6402304399999998                       0
    50   2      40.560000000000002               7.5923251                       0
    51   1                   43.68      7.5481934300000004                       0
    52   2      46.799999999999997      7.5080194100000002                       0
    53   1      49.920000000000002      7.4717501400000002                       0
    54   2      53.039999999999999      7.4391759899999998                       0
    55   2                       0      8.1899999999999995                       0
    56   2      3.1200000000000001      8.1608240100000007                       0
    57   2      6.2400000000000002      8.1282498600000004                       0
    58   2      9.3599999999999994      8.0919805900000004                       0
    59   4                   12.48      8.0518065700000001                       0
    60   1                    15.6      8.0076748999999996                       0
    61   2      18.719999999999999      7.9597695599999998                       0
    62   4                   21.84      7.9085830000000001                       0
    63   2      24.960000000000001              7.85494833                       0
    64   1      28.079999999999998                   10.92                       0
    65   1      31.199999999999999             10.86505167                       0
    66   2                   34.32               10.811417                       0
    67   1      37.439999999999998      10.760230440000001                       0
    68   2      40.560000000000002      10.712325099999999                       0
    69   1                   43.68      10.668193430000001                       0
    70   4      46.799999999999997             10.62801941                       0
    71   2      49.920000000000002             10.59175014                       0
    72   2      53.039999999999999             10.55917599                       0
    73   4                       0                   11.31                       0
    74   1      3.1200000000000001             11.28082401                       0
    75   1      6.2400000000000002             11.24824986                       0
    76   2      9.3599999999999994             11.21198059                       0
    77   1                   12.48      11.171806569999999                       0
    78   2                    15.6      11.127674900000001                       0
    79   2      18.719999999999999      11.079769560000001                       0
    80   1                   21.84      11.028582999999999                       0
    81   1      24.960000000000001             10.97494833                       0
    82   1      28.079999999999998      14.039999999999999                       0
    83   2      31.199999999999999      13.985051670000001                       0
    84   1                   34.32               13.931417                       0
    85   1      37.439999999999998             13.88023044                       0
    86   2      40.560000000000002              13.8323251                       0
    87   1                   43.68             13.78819343                       0
    88   2      46.799999999999997      13.748019409999999                       0
    89   1      49.920000000000002      13.711750139999999                       0
    90   2      53.039999999999999      13.679175989999999                       0
    91   1                       0                   14.43                       0
    92   1      3.1200000000000001      14.400824009999999                       0
    93   1      6.2400000000000002      14.368249860000001                       0
    94   1      9.3599999999999994      14.331980590000001                       0
    95   1                   12.48             14.29180657                       0
    96   1                    15.6              14.2476749                       0
    97   2      18.719999999999999             14.19976956                       0
    98   2                   21.84               14.148583                       0
    99   1      24.960000000000001      14.094948329999999                       0
   100   2      28.079999999999998                   17.16                       0
   101   2      31.199999999999999      17.105051670000002                       0
   102   1                   34.32      17.051417000000001                       0
   103   1      37.439999999999998      17.000230439999999                       0
   104   2      40.560000000000002      16.952325099999999                       0
   105   1                   43.68      16.908193430000001                       0
   106   4      46.799999999999997      16.868019409999999                       0
   107   4      49.920000000000002             16.83175014                       0
   108   1      53.039999999999999      16.799175989999998                       0
   109   2                       0      17.550000000000001                       0
   110   2      3.1200000000000001      17.520824009999998                       0
   111   1      6.2400000000000002             17.48824986                       0
   112   2      9.3599999999999994      17.451980590000002                       0
   113   2                   12.48             17.41180657                       0
   114   2                    15.6      17.367674900000001                       0
   115   2      18.719999999999999      17.319769560000001                       0
   116   2                   21.84               17.268583                       0
   117   2      24.960000000000001      17.214948329999999                       0
   118   2      28.079999999999998      20.280000000000001                       0
   119   2      31.199999999999999      20.225051669999999                       0
   120   2                   34.32      20.171417000000002                       0
   121   1      37.439999999999998             20.12023044                       0
   122   2      40.560000000000002              20.0723251                       0
   123   4                   43.68      20.028193430000002                       0
   124   2      46.799999999999997             19.98801941                       0
   125   1      49.920000000000002      19.951750140000001                       0
   126   2      53.039999999999999      19.919175989999999                       0
   127   1                       0      20.670000000000002                       0
   128   1      3.1200000000000001      20.640824009999999                       0
   129   1      6.2400000000000002      20.608249860000001                       0
   130   1      9.3599999999999994      20.571980589999999                       0
   131   2                   12.48      20.531806570000001                       0
   132   2                    15.6      20.487674899999998                       0
   133   2      18.719999999999999      20.439769559999998                       0
   134   1                   21.84      20.388583000000001                       0
   135   2      24.960000000000001             20.33494833                       0
   136   4      28.079999999999998      23.399999999999999                       0
   137   1      31.199999999999999             23.34505167                       0
   138   2                   34.32      23.291416999999999                       0
   139   1      37.439999999999998      23.240230440000001                       0
   140   1      40.560000000000002      23.192325100000001                       0
   141   1                   43.68      23.148193429999999                       0
   142   1      46.799999999999997      23.108019410000001                       0
   143   2      49.920000000000002      23.071750139999999                       0
   144   2      53.039999999999999             23.03917599                       0
   145   2                       0      23.789999999999999                       0
   146   2      3.1200000000000001             23.76082401                       0
   147   2      6.2400000000000002      23.728249859999998                       0
   148   2      9.3599999999999994             23.69198059                       0
   149   1                   12.48      23.651806570000002                       0
   150   2                    15.6      23.607674899999999                       0
   151   2      18.719999999999999      23.559769559999999                       0
   152   2                   21.84      23.508583000000002                       0
   153   1      24.960000000000001      23.454948330000001                       0
   154   2      28.079999999999998                   26.52                       0
   155   1      31.199999999999999      26.465051670000001                       0
   156   2                   34.32               26.411417                       0
   157   1      37.439999999999998      26.360230439999999                       0
   158   2      40.560000000000002      26.312325099999999                       0
   159   2                   43.68             26.26819343                       0
   160   2      46.799999999999997      26.228019410000002                       0
   161   4      49.920000000000002             26.19175014                       0
   162   1      53.039999999999999      26.159175990000001                       0
   163   1                       0                   26.91                       0
   164   1      3.1200000000000001      26.880824010000001                       0
   165   4      6.2400000000000002      26.848249859999999                       0
   166   1      9.3599999999999994      26.811980590000001                       0
   167   2                   12.48      26.771806569999999                       0
   168   4                    15.6              26.7276749                       0
   169   4      18.719999999999999             26.67976956                       0
   170   2                   21.84      26.628582999999999                       0
   171   1      24.960000000000001      26.574948330000002                       0
   172   1      28.079999999999998      29.640000000000001                       0
   173   1      31.199999999999999      29.585051669999999                       0
   174   4                   34.32      29.531417000000001                       0
   175   1      37.439999999999998             29.48023044                       0
   176   2      40.560000000000002              29.4323251                       0
   177   2                   43.68      29.388193430000001                       0
   178   2      46.799999999999997      29.348019409999999                       0
   179   1      49.920000000000002      29.311750140000001                       0
   180   2      53.039999999999999      29.279175989999999                       0
   181   1                       0      30.030000000000001                       0
   182   2      3.1200000000000001      30.000824009999999                       0
   183   2      6.2400000000000002             29.96824986                       0
   184   2      9.3599999999999994      29.931980589999998                       0
   185   1                   12.48             29.89180657                       0
   186   2                    15.6      29.847674900000001                       0
   187   1      18.719999999999999      29.799769560000001                       0
   188   4                   21.84               29.748583                       0
   189   1      24.960000000000001      29.694948329999999                       0
   190   1      28.079999999999998      32.759999999999998                       0
   191   2      31.199999999999999      32.705051670000003                       0
   192   2                   34.32      32.651417000000002                       0
   193   1      37.439999999999998      32.600230439999997                       0
   194   1      40.560000000000002      32.552325099999997                       0
   195   2                   43.68      32.508193429999999                       0
   196   1      46.799999999999997      32.468019409999997                       0
   197   1      49.920000000000002      32.431750139999998                       0
   198   2      53.039999999999999      32.399175990000003                       0
   199   2                       0      33.149999999999999                       0
   200   2      3.1200000000000001             33.12082401                       0
   201   1      6.2400000000000002      33.088249859999998                       0
   202   2      9.3599999999999994      33.051980589999999                       0
   203   1                   12.48      33.011806569999997                       0
   204   4                    15.6      32.967674899999999                       0
   205   2      18.719999999999999      32.919769559999999                       0
   206   2                   21.84      32.868583000000001                       0
   207   1      24.960000000000001             32.81494833                       0
   208   1      28.079999999999998      35.880000000000003                       0
   209   1      31.199999999999999      35.825051670000001                       0
   210   1                   34.32               35.771417                       0
   211   1      37.439999999999998      35.720230440000002                       0
   212   1      40.560000000000002      35.672325100000002                       0
   213   2                   43.68      35.628193430000003                       0
   214   1      46.799999999999997      35.588019410000001                       0
   215   1      49.920000000000002      35.551750140000003                       0
   216   2      53.039999999999999      35.519175990000001                       0
   217   2                       0      36.270000000000003                       0
   218   2      3.1200000000000001      36.240824009999997                       0
   219   2      6.2400000000000002      36.208249860000002                       0
   220   2      9.3599999999999994      36.171980589999997                       0
   221   2                   12.48      36.131806570000002                       0
   222   1                    15.6      36.087674900000003                       0
   223   4      18.719999999999999      36.039769560000003                       0
   224   1                   21.84      35.988582999999998                       0
   225   1      24.960000000000001      35.934948329999997                       0
   226   1      28.079999999999998                      39                       0
   227   2      31.199999999999999      38.945051669999998                       0
   228   1                   34.32      38.891416999999997                       0
   229   1      37.439999999999998      38.840230439999999                       0
   230   2      40.560000000000002      38.792325099999999                       0
   231   1                   43.68      38.748193430000001                       0
   232   2      46.799999999999997      38.708019409999999                       0
   233   1      49.920000000000002             38.67175014                       0
   234   4      53.039999999999999      38.639175989999998                       0
   235   1                       0      39.390000000000001                       0
   236   1      3.1200000000000001      39.360824010000002                       0
   237   2      6.2400000000000002             39.32824986                       0
   238   2      9.3599999999999994      39.291980590000001                       0
   239   2                   12.48      39.251806569999999                       0
   240   1                    15.6      39.207674900000001                       0
   241   1      18.719999999999999      39.159769560000001                       0
   242   2                   21.84      39.108583000000003                       0
   243   4      24.960000000000001      39.054948330000002                       0
   244   2      28.079999999999998      42.119999999999997                       0
   245   2      31.199999999999999      42.065051670000003                       0
   246   2                   34.32      42.011417000000002                       0
   247   2      37.439999999999998      41.960230439999997                       0
   248   4      40.560000000000002      41.912325099999997                       0
   249   2                   43.68      41.868193429999998                       0
   250   2      46.799999999999997      41.828019410000003                       0
   251   1      49.920000000000002      41.791750139999998                       0
   252   2      53.039999999999999      41.759175990000003                       0
   253   1                       0      42.509999999999998                       0
   254   1      3.1200000000000001      42.480824009999999                       0
   255   2      6.2400000000000002      42.448249859999997                       0
   256   2      9.3599999999999994      42.411980589999999                       0
   257   2                   12.48      42.371806569999997                       0
   258   2                    15.6      42.327674899999998                       0
   259   1      18.719999999999999      42.279769559999998                       0
   260   1                   21.84               42.228583                       0
   261   2      24.960000000000001      42.174948329999999                       0
   262   1      28.079999999999998      45.240000000000002                       0
   263   1      31.199999999999999             45.18505167                       0
   264   1                   34.32      45.131416999999999                       0
   265   1      37.439999999999998      45.080230440000001                       0
   266   1      40.560000000000002      45.032325100000001                       0
   267   1                   43.68      44.988193430000003                       0
   268   2      46.799999999999997      44.948019410000001                       0
   269   1      49.920000000000002      44.911750140000002                       0
   270   1      53.039999999999999             44.87917599                       0
   271   1                       0      45.630000000000003                       0
   272   1      3.1200000000000001      45.600824009999997                       0
   273   1      6.2400000000000002      45.568249860000002                       0
   274   1      9.3599999999999994      45.531980590000003                       0
   275   1                   12.48      45.491806570000001                       0
   276   2                    15.6      45.447674900000003                       0
   277   2      18.719999999999999      45.399769560000003                       0
   278   1                   21.84      45.348582999999998                       0
   279   1      24.960000000000001      45.294948329999997                       0
   280   1      28.079999999999998      48.359999999999999                       0
   281   1      31.199999999999999      48.305051669999997                       0
   282   1                   34.32      48.251416999999996                       0
   283   1      37.439999999999998      48.200230439999999                       0
   284   4      40.560000000000002      48.152325099999999                       0
   285   1                   43.68             48.10819343                       0
   286   2      46.799999999999997      48.068019409999998                       0
   287   4      49.920000000000002             48.03175014                       0
   288   2      53.039999999999999      47.999175989999998                       0
   289   4                       0                   48.75                       0
   290   2      3.1200000000000001      48.720824010000001                       0
   291   2      6.2400000000000002      48.688249859999999                       0
   292   2      9.3599999999999994      48.651980590000001                       0
   293   4                   12.48      48.611806569999999                       0
   294   2                    15.6              48.5676749                       0
   295   1      18.719999999999999             48.51976956                       0
   296   1                   21.84      48.468583000000002                       0
   297   1      24.960000000000001      48.414948330000001                       0
   298   2      28.079999999999998      51.479999999999997                       0
   299   2      31.199999999999999      51.425051670000002                       0
   300   2                   34.32      51.371417000000001                       0
   301   2      37.439999999999998      51.320230440000003                       0
   302   1      40.560000000000002      51.272325100000003                       0
   303   2                   43.68      51.228193429999997                       0
   304   1      46.799999999999997      51.188019410000003                       0
   305   2      49.920000000000002      51.151750139999997                       0
   306   2      53.039999999999999      51.119175990000002                       0
   307   1                       0      51.869999999999997                       0
   308   1      3.1200000000000001      51.840824009999999                       0
   309   2      6.2400000000000002      51.808249859999997                       0
   310   1      9.3599999999999994      51.771980589999998                       0
   311   4                   12.48      51.731806570000003                       0
   312   2                    15.6      51.687674899999998                       0
   313   1      18.719999999999999      51.639769559999998                       0
   314   2                   21.84               51.588583                       0
   315   1      24.960000000000001      51.534948329999999                       0
   316   2      28.079999999999998      54.600000000000001                       0
   317   1      31.199999999999999      54.545051669999999                       0
   318   2                   34.32      54.491416999999998                       0
   319   1      37.439999999999998      54.440230440000001                       0
   320   2      40.560000000000002      54.392325100000001                       0
   321   2                   43.68      54.348193430000002                       0
   322   2      46.799999999999997             54.30801941                       0
   323   2      49.920000000000002      54.271750140000002                       0
   324   1      53.039999999999999             54.23917599                       0
   325   1                       0             -1.14082401      3.1200000000000001
   326   1      3.1200000000000001     -1.1699999999999999      3.1200000000000001
   327   1      6.2400000000000002             -1.20305532      3.1200000000000001
   328   1      9.3599999999999994             -1.24046089      3.1200000000000001
   329   1                   12.48             -1.28262001      3.1200000000000001
   330   1                    15.6     -1.3297695599999999      3.1200000000000001
   331   1      18.719999999999999     -1.3818476099999999      3.1200000000000001
   332   2                   21.84             -1.43835256      3.1200000000000001
   333   2      24.960000000000001             -1.49824986      3.1200000000000001
   334   2      28.079999999999998      1.5600000000000001      3.1200000000000001
   335   4      31.199999999999999              1.49824986      3.1200000000000001
   336   2                   34.32              1.43835256      3.1200000000000001
   337   1      37.439999999999998      1.3818476099999999      3.1200000000000001
   338   1      40.560000000000002      1.3297695599999999      3.1200000000000001
   339   1                   43.68              1.28262001      3.1200000000000001
   340   1      46.799999999999997              1.24046089      3.1200000000000001
   341   2      49.920000000000002              1.20305532      3.1200000000000001
   342   2      53.039999999999999      1.1699999999999999      3.1200000000000001
   343   2                       0      1.9791759900000001      3.1200000000000001
   344   1      3.1200000000000001                    1.95      3.1200000000000001
   345   1      6.2400000000000002      1.9169446800000001      3.1200000000000001
   346   2      9.3599999999999994      1.8795391100000001      3.1200000000000001
   347   1                   12.48      1.8373799900000001      3.1200000000000001
   348   2                    15.6              1.79023044      3.1200000000000001
   349   1      18.719999999999999              1.73815239      3.1200000000000001
   350   1                   21.84      1.6816474400000001      3.1200000000000001
   351   1      24.960000000000001      1.6217501400000001      3.1200000000000001
   352   2      28.079999999999998      4.6799999999999997      3.1200000000000001
   353   1      31.199999999999999      4.6182498599999997      3.1200000000000001
   354   2                   34.32      4.5583525600000003      3.1200000000000001
   355   1      37.439999999999998      4.5018476100000004      3.1200000000000001
   356   2      40.560000000000002              4.44976956      3.1200000000000001
   357   2                   43.68      4.4026200099999997      3.1200000000000001
   358   1      46.799999999999997      4.3604608899999997      3.1200000000000001