# LAMMPS input script generated by PyLammps
# Initialise simulation
atom_style     atomic
units          metal
read_data     /home/winniebird/sfarrelly2024/test/test_projects/test_project/project/data//input/HEA_II.lmp
Reading data file ...
  orthogonal box = (0 0 0) to (12.512 12.512 12.512)
  1 by 1 by 1 MPI processor grid
  reading atoms ...
  128 atoms
  read_data CPU = 0.001 seconds
# 5 elements of HEA: Ni Co Ti Zr Hf specorder
mass           1 58.693
mass           2 58.933
mass           3 47.867
mass           4 91.224
mass           5 178.49
# Reading snap potential files
pair_style     snap
pair_coeff     * * /home/winniebird/sfarrelly2024/test/sez26_package/scripts/HEA_var1.snapcoeff /home/winniebird/sfarrelly2024/test/sez26_package/scripts/HEA_var1.snapparam Ni Co Ti Zr Hf
SNAP Element = Ni, Radius 1.805, Weight 0.43
SNAP Element = Co, Radius 1.81, Weight 0.48
SNAP Element = Ti, Radius 2.094, Weight 0.36
SNAP Element = Zr, Radius 2.28, Weight 0.35
SNAP Element = Hf, Radius 2.313, Weight 0.33
SNAP keyword rcutfac 1.0
SNAP keyword twojmax 8
SNAP keyword rfac0 0.99363
SNAP keyword rmin0 0.0
SNAP keyword bzeroflag 0
SNAP keyword wselfallflag 0
SNAP keyword chemflag 0
SNAP keyword bnormflag 0
SNAP keyword switchinnerflag 0
SNAP keyword quadraticflag 0
# Setup standard output
thermo_style   custom step temp pe pxx pyy pzz density
thermo         100
# Set up and run minimization
dump		    1 all custom 100 /home/winniebird/sfarrelly2024/test/test_projects/test_project/project/data/output/min_dump.cfg id type x y z
min_style	    cg
fix		    1 all box/relax aniso 0.0
minimize	    0.0 0.02 200 1000
Neighbor list info ...
  update: every = 1 steps, delay = 0 steps, check = yes
  max neighbors/atom: 2000, page size: 100000
  master list distance cutoff = 6.626
  ghost atom cutoff = 6.626
  binsize = 3.313, bins = 4 4 4
  1 neighbor lists, perpetual/occasional/extra = 1 0 0
  (1) pair snap, perpetual
      attributes: full, newton on
      pair build: full/bin/atomonly
      stencil: full/bin/3d
      bin: standard
WARNING: Energy due to 3 extra global DOFs will be included in minimizer energies
 (../min.cpp:225)
Per MPI rank memory allocation (min/avg/max) = 4.811 | 4.811 | 4.811 Mbytes
   Step          Temp          PotEng          Pxx            Pyy            Pzz          Density    
         0   0             -1001.9351     -27383.169     -27139.555     -27792.533      8.8853741    
       100   0             -1003.0934     -186.86074     -182.10347     -173.06077      9.0475084    
       200   0             -1004.238      -395.12749     -392.45905     -381.14024      9.0615887    
Loop time of 6.86218 on 1 procs for 200 steps with 128 atoms

100.0% CPU use with 1 MPI tasks x no OpenMP threads

Minimization stats:
  Stopping criterion = max iterations
  Energy initial, next-to-last, final = 
     -1001.93513770561  -1004.22891525193  -1004.23797332337
  Force two-norm initial, final = 58.363518 3.5575926
  Force max component initial, final = 33.978013 0.55457488
  Final line search alpha, max atom move = 0.0007393967 0.00041005084
  Iterations, force evaluations = 200 200

MPI task timing breakdown:
Section |  min time  |  avg time  |  max time  |%varavg| %total
---------------------------------------------------------------
Pair    | 6.8586     | 6.8586     | 6.8586     |   0.0 | 99.95
Neigh   | 0          | 0          | 0          |   0.0 |  0.00
Comm    | 0.00058382 | 0.00058382 | 0.00058382 |   0.0 |  0.01
Output  | 0.00027488 | 0.00027488 | 0.00027488 |   0.0 |  0.00
Modify  | 0          | 0          | 0          |   0.0 |  0.00
Other   |            | 0.002722   |            |       |  0.04

Nlocal:            128 ave         128 max         128 min
Histogram: 1 0 0 0 0 0 0 0 0 0
Nghost:           1113 ave        1113 max        1113 min
Histogram: 1 0 0 0 0 0 0 0 0 0
Neighs:              0 ave           0 max           0 min
Histogram: 1 0 0 0 0 0 0 0 0 0
FullNghs:         7748 ave        7748 max        7748 min
Histogram: 1 0 0 0 0 0 0 0 0 0

Total # of neighbors = 7748
Ave neighs/atom = 60.53125
Neighbor list builds = 0
Dangerous builds = 0
unfix		    1
minimize	    0.0 0.02 200 1000
Per MPI rank memory allocation (min/avg/max) = 6.066 | 6.066 | 6.066 Mbytes
   Step          Temp          PotEng          Pxx            Pyy            Pzz          Density    
       200   0             -1004.238      -395.12749     -392.45905     -381.14024      9.0615887    
       228   0             -1006.7808     -1800.9303     -3542.8862     -1795.3325      9.0615887    
Loop time of 1.92254 on 1 procs for 28 steps with 128 atoms

100.0% CPU use with 1 MPI tasks x no OpenMP threads

Minimization stats:
  Stopping criterion = force tolerance
  Energy initial, next-to-last, final = 
     -1004.23797332337  -1006.78077832398   -1006.7808340901
  Force two-norm initial, final = 3.4631423 0.019072678
  Force max component initial, final = 0.55457488 0.0028991787
  Final line search alpha, max atom move = 1 0.0028991787
  Iterations, force evaluations = 28 55

MPI task timing breakdown:
Section |  min time  |  avg time  |  max time  |%varavg| %total
---------------------------------------------------------------
Pair    | 1.9221     | 1.9221     | 1.9221     |   0.0 | 99.98
Neigh   | 0          | 0          | 0          |   0.0 |  0.00
Comm    | 0.0001742  | 0.0001742  | 0.0001742  |   0.0 |  0.01
Output  | 0          | 0          | 0          |   0.0 |  0.00
Modify  | 0          | 0          | 0          |   0.0 |  0.00
Other   |            | 0.0002597  |            |       |  0.01

Nlocal:            128 ave         128 max         128 min
Histogram: 1 0 0 0 0 0 0 0 0 0
Nghost:           1113 ave        1113 max        1113 min
Histogram: 1 0 0 0 0 0 0 0 0 0
Neighs:              0 ave           0 max           0 min
Histogram: 1 0 0 0 0 0 0 0 0 0
FullNghs:         7762 ave        7762 max        7762 min
Histogram: 1 0 0 0 0 0 0 0 0 0

Total # of neighbors = 7762
Ave neighs/atom = 60.640625
Neighbor list builds = 0
Dangerous builds = 0
undump		    1
write_data	/home/winniebird/sfarrelly2024/test/test_projects/test_project/project/data/output/after_min.data nocoeff
System init for write_data ...
# Define some properties you are instrested in
variable	    lenx equal lx
variable	    leny equal ly
variable	    lenz equal lz
# computing more variables
compute		    sta all stress/atom NULL
compute		    vol_atom all voronoi/atom
variable	    va atom c_vol_atom[1]
variable	    sa_xx atom 1E-4*c_sta[1]/v_va
variable	    sa_yy atom 1E-4*c_sta[2]/v_va
variable	    sa_zz atom 1E-4*c_sta[3]/v_va
variable	    sa_xy atom 1E-4*c_sta[4]/v_va
variable	    sa_xz atom 1E-4*c_sta[5]/v_va
variable	    sa_yz atom 1E-4*c_sta[6]/v_va
variable	    sa_hydro atom (v_sa_xx+v_sa_yy+v_sa_zz)/3.0
variable	    sa_von atom sqrt(0.5*((v_sa_xx-v_sa_yy)^2+(v_sa_yy-v_sa_zz)^2+(v_sa_zz-v_sa_xx)^2)+3.0*((v_sa_xy)^2+(v_sa_xz)^2+(v_sa_yz)^2))
# Set up and run MD in NPT ensemble
timestep       0.001
neighbor       1.0 bin
neigh_modify   every 5 delay 0 check yes
reset_timestep 0
velocity	    all create 300.0 12345678
dump		    1 all custom 1000 /home/winniebird/sfarrelly2024/test/test_projects/test_project/project/data/output/md_npt_dump.cfg id type x y z v_sa_hydro v_sa_von
fix		    2 all print 100 "$(step) $(temp) $(pe) $(vol) $(density) $(pxx) $(pyy) $(pzz)" file /home/winniebird/sfarrelly2024/test/test_projects/test_project/project/data//output/Record_npt.txt
fix		    1 all npt temp 300.0 300.0 0.1 aniso 0 0 1.0
fix		    avg all ave/time 10 100 1000 v_lenx v_leny v_lenz
run		    1000
0 300.00000000000005684 -1006.7808340901007114 1920.6648122895096549 9.0615886613156106932 847.71227778265824782 -594.33749788918214563 823.81595057188508235
Per MPI rank memory allocation (min/avg/max) = 4.437 | 4.437 | 4.437 Mbytes
   Step          Temp          PotEng          Pxx            Pyy            Pzz          Density    
         0   300           -1006.7808      847.71228     -594.3375       823.81595      9.0615887    
100 170.64800529099883875 -1004.1836840985512254 1938.1188674336142412 8.9799830019077191423 -11446.07421102913213 -10334.741342041328608 -8809.7283586663488677
       100   170.64801     -1004.1837     -11446.074     -10334.741     -8809.7284      8.979983     
200 187.58851375852020738 -1003.4484028227011549 1933.5237084121856697 9.0013245813897615477 -454.62137615722036799 579.28215914839358902 -5026.713645735465434
       200   187.58851     -1003.4484     -454.62138      579.28216     -5026.7136      9.0013246    
300 229.3249595776015326 -1002.6911623152723223 1919.8137017656561056 9.0656059331297385029 12661.505481233543833 12877.83481582499553 12990.806048932190606
       300   229.32496     -1002.6912      12661.505      12877.835      12990.806      9.0656059    
400 268.17527992586332175 -1001.8911058086582671 1946.3651079150342866 8.9419371599165842213 -10611.683898215604131 -10175.418837814728249 -2137.2457532337721204
       400   268.17528     -1001.8911     -10611.684     -10175.419     -2137.2458      8.9419372    
500 307.5096572939124826 -1001.3791498595867324 1944.7960456081245866 8.949151518759025592 -1736.7243369653742775 -994.03279759474207822 -9695.993889115003185
       500   307.50966     -1001.3791     -1736.7243     -994.0328      -9695.9939      8.9491515    
600 370.31592023570163974 -1001.8695435912801486 1928.5412518364189509 9.0245798313401834889 6058.2964423426710709 6343.828305761370757 7360.5576461448226837
       600   370.31592     -1001.8695      6058.2964      6343.8283      7360.5576      9.0245798    
700 335.47168522909453259 -1001.7313967088091431 1949.2346775902283298 8.9287732694899535346 -10905.198601815829534 -5844.293924716708716 -5612.1598307405811283
       700   335.47169     -1001.7314     -10905.199     -5844.2939     -5612.1598      8.9287733    
800 324.26346527533894459 -1002.2978841124097471 1939.9423988993962666 8.9715418844933800813 303.54846323321675072 -7230.2388328314245882 -1473.8065180964154024
       800   324.26347     -1002.2979      303.54846     -7230.2388     -1473.8065      8.9715419    
900 285.95936908643290053 -1002.162665666321459 1932.9273255336677266 9.0041018383478537146 7797.7941954707457626 2541.1802924937337593 -1133.9836344800226016
       900   285.95937     -1002.1627      7797.7942      2541.1803     -1133.9836      9.0041018    
1000 263.20762889077184354 -1001.5901169242065407 1939.3111786462266082 8.9744620032458559677 -6437.1845186247028323 6783.1969757426131764 837.56242609382843511
      1000   263.20763     -1001.5901     -6437.1845      6783.197       837.56243      8.974462     
Loop time of 21.0621 on 1 procs for 1000 steps with 128 atoms

Performance: 4.102 ns/day, 5.851 hours/ns, 47.479 timesteps/s, 6.077 katom-step/s
100.0% CPU use with 1 MPI tasks x no OpenMP threads

MPI task timing breakdown:
Section |  min time  |  avg time  |  max time  |%varavg| %total
---------------------------------------------------------------
Pair    | 21.046     | 21.046     | 21.046     |   0.0 | 99.92
Neigh   | 0.0016162  | 0.0016162  | 0.0016162  |   0.0 |  0.01
Comm    | 0.0019474  | 0.0019474  | 0.0019474  |   0.0 |  0.01
Output  | 0.0070107  | 0.0070107  | 0.0070107  |   0.0 |  0.03
Modify  | 0.0054751  | 0.0054751  | 0.0054751  |   0.0 |  0.03
Other   |            | 0.0005857  |            |       |  0.00

Nlocal:            128 ave         128 max         128 min
Histogram: 1 0 0 0 0 0 0 0 0 0
Nghost:            727 ave         727 max         727 min
Histogram: 1 0 0 0 0 0 0 0 0 0
Neighs:              0 ave           0 max           0 min
Histogram: 1 0 0 0 0 0 0 0 0 0
FullNghs:         4300 ave        4300 max        4300 min
Histogram: 1 0 0 0 0 0 0 0 0 0

Total # of neighbors = 4300
Ave neighs/atom = 33.59375
Neighbor list builds = 8
Dangerous builds = 0
undump		    1
unfix		    1
unfix		    2
variable	    newlx equal f_avg[1]
variable	    newly equal f_avg[2]
variable	    newlz equal f_avg[3]
change_box     all x final 0 ${newlx} y final 0 ${newly} z final 0 ${newlz} remap units box
change_box     all x final 0 12.4538334513155 y final 0 ${newly} z final 0 ${newlz} remap units box
change_box     all x final 0 12.4538334513155 y final 0 12.446985030242 z final 0 ${newlz} remap units box
change_box     all x final 0 12.4538334513155 y final 0 12.446985030242 z final 0 12.4884897705504 remap units box
Changing box ...
  orthogonal box = (0 0.06936294 0.028373913) to (12.453833 12.442637 12.483626)
  orthogonal box = (0 0 0.028373913) to (12.453833 12.446985 12.483626)
  orthogonal box = (0 0 0) to (12.453833 12.446985 12.48849)
unfix          avg
write_data     /home/winniebird/sfarrelly2024/test/test_projects/test_project/project/data/output/after_relax.data nocoeff
System init for write_data ...
# Add a minimisation (perfect mesh analysis)
dump           1 all custom 100 /home/winniebird/sfarrelly2024/test/test_projects/test_project/project/data/output/min_dump.cfg id type x y z v_sa_hydro v_sa_von
minimize	    0.0 0.02 200 1000
Switching to 'neigh_modify every 1 delay 0 check yes' setting during minimization
Per MPI rank memory allocation (min/avg/max) = 6.562 | 6.562 | 6.562 Mbytes
   Step          Temp          PotEng          Pxx            Pyy            Pzz          Density    
      1000   263.20763     -1001.6486      4890.7121      4154.0502      916.45435      8.9903952    
      1033   263.20763     -1006.6994     -11599.986     -12227.417     -13723.416      8.9903952    
Loop time of 2.21903 on 1 procs for 33 steps with 128 atoms

100.0% CPU use with 1 MPI tasks x no OpenMP threads

Minimization stats:
  Stopping criterion = force tolerance
  Energy initial, next-to-last, final = 
     -1001.64855355703  -1006.69933019653  -1006.69938271724
  Force two-norm initial, final = 7.7689638 0.018667278
  Force max component initial, final = 1.6216476 0.0048230672
  Final line search alpha, max atom move = 1 0.0048230672
  Iterations, force evaluations = 33 64

MPI task timing breakdown:
Section |  min time  |  avg time  |  max time  |%varavg| %total
---------------------------------------------------------------
Pair    | 2.212      | 2.212      | 2.212      |   0.0 | 99.68
Neigh   | 0.00018429 | 0.00018429 | 0.00018429 |   0.0 |  0.01
Comm    | 0.00013617 | 0.00013617 | 0.00013617 |   0.0 |  0.01
Output  | 0          | 0          | 0          |   0.0 |  0.00
Modify  | 0          | 0          | 0          |   0.0 |  0.00
Other   |            | 0.006761   |            |       |  0.30

Nlocal:            128 ave         128 max         128 min
Histogram: 1 0 0 0 0 0 0 0 0 0
Nghost:            727 ave         727 max         727 min
Histogram: 1 0 0 0 0 0 0 0 0 0
Neighs:              0 ave           0 max           0 min
Histogram: 1 0 0 0 0 0 0 0 0 0
FullNghs:         4278 ave        4278 max        4278 min
Histogram: 1 0 0 0 0 0 0 0 0 0

Total # of neighbors = 4278
Ave neighs/atom = 33.421875
Neighbor list builds = 1
Dangerous builds = 0
undump         1
Total wall time: 0:00:32
