# LAMMPS input script generated by PyLammps
# Initialise simulation
atom_style     atomic
units          metal
read_data     /home/winniebird/sfarrelly2024/test/test_projects/test_project/project/data//input/HEA_II.lmp
Reading data file ...
  orthogonal box = (0 0 0) to (12.512 12.512 12.512)
  1 by 1 by 1 MPI processor grid
  reading atoms ...
  128 atoms
  read_data CPU = 0.001 seconds
# 5 elements of HEA: Ni Co Ti Zr Hf specorder
mass           1 58.693
mass           2 58.933
mass           3 47.867
mass           4 91.224
mass           5 178.49
# Reading snap potential files
pair_style     snap
pair_coeff     * * /home/winniebird/sfarrelly2024/test/sez26_package/scripts/HEA_var1.snapcoeff /home/winniebird/sfarrelly2024/test/sez26_package/scripts/HEA_var1.snapparam Ni Co Ti Zr Hf
SNAP Element = Ni, Radius 1.805, Weight 0.43
SNAP Element = Co, Radius 1.81, Weight 0.48
SNAP Element = Ti, Radius 2.094, Weight 0.36
SNAP Element = Zr, Radius 2.28, Weight 0.35
SNAP Element = Hf, Radius 2.313, Weight 0.33
SNAP keyword rcutfac 1.0
SNAP keyword twojmax 8
SNAP keyword rfac0 0.99363
SNAP keyword rmin0 0.0
SNAP keyword bzeroflag 0
SNAP keyword wselfallflag 0
SNAP keyword chemflag 0
SNAP keyword bnormflag 0
SNAP keyword switchinnerflag 0
SNAP keyword quadraticflag 0
# Setup standard output
thermo_style   custom step temp pe pxx pyy pzz density
thermo         100
# Set up and run minimization
dump		    1 all custom 100 /home/winniebird/sfarrelly2024/test/test_projects/test_project/project/data/output/min_dump.cfg id type x y z
min_style	    cg
fix		    1 all box/relax aniso 0.0
minimize	    0.0 0.02 200 1000
Neighbor list info ...
  update: every = 1 steps, delay = 0 steps, check = yes
  max neighbors/atom: 2000, page size: 100000
  master list distance cutoff = 6.626
  ghost atom cutoff = 6.626
  binsize = 3.313, bins = 4 4 4
  1 neighbor lists, perpetual/occasional/extra = 1 0 0
  (1) pair snap, perpetual
      attributes: full, newton on
      pair build: full/bin/atomonly
      stencil: full/bin/3d
      bin: standard
WARNING: Energy due to 3 extra global DOFs will be included in minimizer energies
 (../min.cpp:225)
Per MPI rank memory allocation (min/avg/max) = 4.811 | 4.811 | 4.811 Mbytes
   Step          Temp          PotEng          Pxx            Pyy            Pzz          Density    
         0   0             -1002.0319     -26347.702     -26188.488     -27482.882      8.8853741    
       100   0             -1002.9575      85.332764      99.857882      96.390432      9.0417029    
       200   0             -1004.2593     -524.58404     -517.25013     -511.9434       9.0566487    
Loop time of 6.82508 on 1 procs for 200 steps with 128 atoms

100.0% CPU use with 1 MPI tasks x no OpenMP threads

Minimization stats:
  Stopping criterion = max iterations
  Energy initial, next-to-last, final = 
     -1002.03185619184  -1004.16914590467  -1004.25932725593
  Force two-norm initial, final = 56.7362 3.3473769
  Force max component initial, final = 33.599447 0.63357524
  Final line search alpha, max atom move = 0.0084986042 0.0053845052
  Iterations, force evaluations = 200 200

MPI task timing breakdown:
Section |  min time  |  avg time  |  max time  |%varavg| %total
---------------------------------------------------------------
Pair    | 6.8215     | 6.8215     | 6.8215     |   0.0 | 99.95
Neigh   | 0          | 0          | 0          |   0.0 |  0.00
Comm    | 0.00057938 | 0.00057938 | 0.00057938 |   0.0 |  0.01
Output  | 0.0002764  | 0.0002764  | 0.0002764  |   0.0 |  0.00
Modify  | 0          | 0          | 0          |   0.0 |  0.00
Other   |            | 0.00274    |            |       |  0.04

Nlocal:            128 ave         128 max         128 min
Histogram: 1 0 0 0 0 0 0 0 0 0
Nghost:           1113 ave        1113 max        1113 min
Histogram: 1 0 0 0 0 0 0 0 0 0
Neighs:              0 ave           0 max           0 min
Histogram: 1 0 0 0 0 0 0 0 0 0
FullNghs:         7760 ave        7760 max        7760 min
Histogram: 1 0 0 0 0 0 0 0 0 0

Total # of neighbors = 7760
Ave neighs/atom = 60.625
Neighbor list builds = 0
Dangerous builds = 0
unfix		    1
minimize	    0.0 0.02 200 1000
Per MPI rank memory allocation (min/avg/max) = 6.066 | 6.066 | 6.066 Mbytes
   Step          Temp          PotEng          Pxx            Pyy            Pzz          Density    
       200   0             -1004.2593     -524.58404     -517.25013     -511.9434       9.0566487    
       245   0             -1006.3085     -6469.9762     -1703.2258      357.48822      9.0566487    
Loop time of 3.06284 on 1 procs for 45 steps with 128 atoms

100.0% CPU use with 1 MPI tasks x no OpenMP threads

Minimization stats:
  Stopping criterion = force tolerance
  Energy initial, next-to-last, final = 
     -1004.25932725593  -1006.30841239685  -1006.30846671709
  Force two-norm initial, final = 3.167371 0.019829511
  Force max component initial, final = 0.56918597 0.0029139456
  Final line search alpha, max atom move = 1 0.0029139456
  Iterations, force evaluations = 45 89

MPI task timing breakdown:
Section |  min time  |  avg time  |  max time  |%varavg| %total
---------------------------------------------------------------
Pair    | 3.0622     | 3.0622     | 3.0622     |   0.0 | 99.98
Neigh   | 0          | 0          | 0          |   0.0 |  0.00
Comm    | 0.00026769 | 0.00026769 | 0.00026769 |   0.0 |  0.01
Output  | 0          | 0          | 0          |   0.0 |  0.00
Modify  | 0          | 0          | 0          |   0.0 |  0.00
Other   |            | 0.0003607  |            |       |  0.01

Nlocal:            128 ave         128 max         128 min
Histogram: 1 0 0 0 0 0 0 0 0 0
Nghost:           1113 ave        1113 max        1113 min
Histogram: 1 0 0 0 0 0 0 0 0 0
Neighs:              0 ave           0 max           0 min
Histogram: 1 0 0 0 0 0 0 0 0 0
FullNghs:         7770 ave        7770 max        7770 min
Histogram: 1 0 0 0 0 0 0 0 0 0

Total # of neighbors = 7770
Ave neighs/atom = 60.703125
Neighbor list builds = 0
Dangerous builds = 0
undump		    1
write_data	/home/winniebird/sfarrelly2024/test/test_projects/test_project/project/data/output/after_min.data nocoeff
System init for write_data ...
# Define some properties you are instrested in
variable	    lenx equal lx
variable	    leny equal ly
variable	    lenz equal lz
# computing more variables
compute		    sta all stress/atom NULL
compute		    vol_atom all voronoi/atom
variable	    va atom c_vol_atom[1]
variable	    sa_xx atom 1E-4*c_sta[1]/v_va
variable	    sa_yy atom 1E-4*c_sta[2]/v_va
variable	    sa_zz atom 1E-4*c_sta[3]/v_va
variable	    sa_xy atom 1E-4*c_sta[4]/v_va
variable	    sa_xz atom 1E-4*c_sta[5]/v_va
variable	    sa_yz atom 1E-4*c_sta[6]/v_va
variable	    sa_hydro atom (v_sa_xx+v_sa_yy+v_sa_zz)/3.0
variable	    sa_von atom sqrt(0.5*((v_sa_xx-v_sa_yy)^2+(v_sa_yy-v_sa_zz)^2+(v_sa_zz-v_sa_xx)^2)+3.0*((v_sa_xy)^2+(v_sa_xz)^2+(v_sa_yz)^2))
# Set up and run MD in NPT ensemble
timestep       0.001
neighbor       1.0 bin
neigh_modify   every 5 delay 0 check yes
reset_timestep 0
velocity	    all create 300.0 12345678
dump		    1 all custom 1000 /home/winniebird/sfarrelly2024/test/test_projects/test_project/project/data/output/md_npt_dump.cfg id type x y z v_sa_hydro v_sa_von
fix		    2 all print 100 "$(step) $(temp) $(pe) $(vol) $(density) $(pxx) $(pyy) $(pzz)" file /home/winniebird/sfarrelly2024/test/test_projects/test_project/project/data//output/Record_npt.txt
fix		    1 all npt temp 300.0 300.0 0.1 aniso 0 0 1.0
fix		    avg all ave/time 10 100 1000 v_lenx v_leny v_lenz
run		    1000
0 300 -1006.3084667170874127 1921.7124366612404174 9.0566487228799292808 -3827.2839376729161813 1245.1416255727565385 2978.289054665380263
Per MPI rank memory allocation (min/avg/max) = 4.437 | 4.437 | 4.437 Mbytes
   Step          Temp          PotEng          Pxx            Pyy            Pzz          Density    
         0   300           -1006.3085     -3827.2839      1245.1416      2978.2891      9.0566487    
100 157.02589760112419981 -1003.5116296197479642 1938.1950071230407957 8.979630233938395989 -7798.7679213808096392 -10422.04738578713841 -10451.736766357642409
       100   157.0259      -1003.5116     -7798.7679     -10422.047     -10451.737      8.9796302    
200 180.38056614562376012 -1002.8404823762614342 1933.3780412486069054 9.0020027712689536514 1294.6272940495503008 -1370.6592738561303122 -3935.3242559166424144
       200   180.38057     -1002.8405      1294.6273     -1370.6593     -3935.3243      9.0020028    
300 259.65223932587019817 -1002.675166780269933 1919.5379054227348661 9.0669084658672591814 10445.485402792513923 11762.596471468832533 17001.760496297691134
       300   259.65224     -1002.6752      10445.485      11762.596      17001.76       9.0669085    
400 277.96266485555975123 -1001.5940410109652703 1949.865830984500235 8.9258831088100905049 -9250.0639695474437758 -6409.7764818024088527 -10084.286511941787467
       400   277.96266     -1001.594      -9250.064      -6409.7765     -10084.287      8.9258831    
500 329.99783534508594585 -1001.268103846789927 1946.9803767060973314 8.9391114021781064025 -6647.5626943273528013 -7109.1223494436990222 -4187.4579207589958969
       500   329.99784     -1001.2681     -6647.5627     -7109.1223     -4187.4579      8.9391114    
600 319.94172377331221924 -1000.7060526346346023 1932.8841598309302299 9.0043029204361921813 9043.7243515308618953 5094.5714098366070175 5313.9476925330836821
       600   319.94172     -1000.7061      9043.7244      5094.5714      5313.9477      9.0043029    
700 311.75441038713495345 -1000.825838860596491 1945.3215896930955751 8.9467338343663236344 -4335.7296717696781343 -3895.9938659420618023 -2318.4292625480734387
       700   311.75441     -1000.8258     -4335.7297     -3895.9939     -2318.4293      8.9467338    
800 270.24422489640517142 -1000.8975843875740566 1941.022040279214707 8.9665517052691008359 -5938.928109503862288 3860.0508748217862376 3060.1895065121666448
       800   270.24422     -1000.8976     -5938.9281      3860.0509      3060.1895      8.9665517    
900 300.98253210246713252 -1001.7737429400020801 1926.3354089176493744 9.0349138600994951531 11935.000154824230776 6366.3909488204981244 7264.721503259696874
       900   300.98253     -1001.7737      11935          6366.3909      7264.7215      9.0349139    
1000 295.97568839671106389 -1001.7939310129930846 1951.5576092145151961 8.9181453845144584847 -5504.9126767246380041 -12998.27150705735221 -13917.067948845591673
      1000   295.97569     -1001.7939     -5504.9127     -12998.272     -13917.068      8.9181454    
Loop time of 21.0775 on 1 procs for 1000 steps with 128 atoms

Performance: 4.099 ns/day, 5.855 hours/ns, 47.444 timesteps/s, 6.073 katom-step/s
100.0% CPU use with 1 MPI tasks x no OpenMP threads

MPI task timing breakdown:
Section |  min time  |  avg time  |  max time  |%varavg| %total
---------------------------------------------------------------
Pair    | 21.06      | 21.06      | 21.06      |   0.0 | 99.92
Neigh   | 0.0021499  | 0.0021499  | 0.0021499  |   0.0 |  0.01
Comm    | 0.0019876  | 0.0019876  | 0.0019876  |   0.0 |  0.01
Output  | 0.0067442  | 0.0067442  | 0.0067442  |   0.0 |  0.03
Modify  | 0.0056849  | 0.0056849  | 0.0056849  |   0.0 |  0.03
Other   |            | 0.0006339  |            |       |  0.00

Nlocal:            128 ave         128 max         128 min
Histogram: 1 0 0 0 0 0 0 0 0 0
Nghost:            727 ave         727 max         727 min
Histogram: 1 0 0 0 0 0 0 0 0 0
Neighs:              0 ave           0 max           0 min
Histogram: 1 0 0 0 0 0 0 0 0 0
FullNghs:         4284 ave        4284 max        4284 min
Histogram: 1 0 0 0 0 0 0 0 0 0

Total # of neighbors = 4284
Ave neighs/atom = 33.46875
Neighbor list builds = 10
Dangerous builds = 0
undump		    1
unfix		    1
unfix		    2
variable	    newlx equal f_avg[1]
variable	    newly equal f_avg[2]
variable	    newlz equal f_avg[3]
change_box     all x final 0 ${newlx} y final 0 ${newly} z final 0 ${newlz} remap units box
change_box     all x final 0 12.4354661923901 y final 0 ${newly} z final 0 ${newlz} remap units box
change_box     all x final 0 12.4354661923901 y final 0 12.4918516876659 z final 0 ${newlz} remap units box
change_box     all x final 0 12.4354661923901 y final 0 12.4918516876659 z final 0 12.4698498518631 remap units box
Changing box ...
  orthogonal box = (0 -0.027947318 -0.013224298) to (12.435466 12.539947 12.525224)
  orthogonal box = (0 0 -0.013224298) to (12.435466 12.491852 12.525224)
  orthogonal box = (0 0 0) to (12.435466 12.491852 12.46985)
unfix          avg
write_data     /home/winniebird/sfarrelly2024/test/test_projects/test_project/project/data/output/after_relax.data nocoeff
System init for write_data ...
# Add a minimisation (perfect mesh analysis)
dump           1 all custom 100 /home/winniebird/sfarrelly2024/test/test_projects/test_project/project/data/output/min_dump.cfg id type x y z v_sa_hydro v_sa_von
minimize	    0.0 0.02 200 1000
Switching to 'neigh_modify every 1 delay 0 check yes' setting during minimization
Per MPI rank memory allocation (min/avg/max) = 6.562 | 6.562 | 6.562 Mbytes
   Step          Temp          PotEng          Pxx            Pyy            Pzz          Density    
      1000   295.97569     -1001.8879      958.93214      1817.8753      100.38624      8.9847461    
      1038   295.97569     -1006.241      -13796.719     -12826.64      -11704.935      8.9847461    
Loop time of 2.54999 on 1 procs for 38 steps with 128 atoms

100.0% CPU use with 1 MPI tasks x no OpenMP threads

Minimization stats:
  Stopping criterion = force tolerance
  Energy initial, next-to-last, final = 
     -1001.88788268676   -1006.2409437642  -1006.24100819894
  Force two-norm initial, final = 6.7917884 0.01961384
  Force max component initial, final = 1.2351785 0.0046199891
  Final line search alpha, max atom move = 1 0.0046199891
  Iterations, force evaluations = 38 74

MPI task timing breakdown:
Section |  min time  |  avg time  |  max time  |%varavg| %total
---------------------------------------------------------------
Pair    | 2.5428     | 2.5428     | 2.5428     |   0.0 | 99.72
Neigh   | 0.00019686 | 0.00019686 | 0.00019686 |   0.0 |  0.01
Comm    | 0.00015829 | 0.00015829 | 0.00015829 |   0.0 |  0.01
Output  | 0          | 0          | 0          |   0.0 |  0.00
Modify  | 0          | 0          | 0          |   0.0 |  0.00
Other   |            | 0.006826   |            |       |  0.27

Nlocal:            128 ave         128 max         128 min
Histogram: 1 0 0 0 0 0 0 0 0 0
Nghost:            727 ave         727 max         727 min
Histogram: 1 0 0 0 0 0 0 0 0 0
Neighs:              0 ave           0 max           0 min
Histogram: 1 0 0 0 0 0 0 0 0 0
FullNghs:         4274 ave        4274 max        4274 min
Histogram: 1 0 0 0 0 0 0 0 0 0

Total # of neighbors = 4274
Ave neighs/atom = 33.390625
Neighbor list builds = 1
Dangerous builds = 0
undump         1
Total wall time: 0:00:33
