/home/sez26/TIGP-IIP/HEA_dislocation/Screw/HEA_I.lmp (written by ASE) 

11664 	 atoms 
5  atom types
0.0      56.159999999999997  xlo xhi
0.0      56.159999999999997  ylo yhi
0.0      56.159999999999997  zlo zhi


Atoms 

     1   1                       0     -1.1699999999999999                       0
     2   5      3.1200000000000001     -1.1991759900000001                       0
     3   5      6.2400000000000002     -1.2317501399999999                       0
     4   4      9.3599999999999994             -1.26801941                       0
     5   3                   12.48             -1.30819343                       0
     6   3                    15.6     -1.3523251000000001                       0
     7   1      18.719999999999999     -1.4002304400000001                       0
     8   2                   21.84               -1.451417                       0
     9   1      24.960000000000001     -1.5050516700000001                       0
    10   3      28.079999999999998      1.5600000000000001                       0
    11   2      31.199999999999999      1.5050516700000001                       0
    12   1                   34.32                1.451417                       0
    13   2      37.439999999999998      1.4002304400000001                       0
    14   5      40.560000000000002      1.3523251000000001                       0
    15   4                   43.68              1.30819343                       0
    16   1      46.799999999999997              1.26801941                       0
    17   1      49.920000000000002      1.2317501399999999                       0
    18   1      53.039999999999999      1.1991759900000001                       0
    19   1                       0                    1.95                       0
    20   1      3.1200000000000001              1.92082401                       0
    21   1      6.2400000000000002      1.8882498599999999                       0
    22   3      9.3599999999999994      1.8519805899999999                       0
    23   1                   12.48      1.8118065699999999                       0
    24   1                    15.6               1.7676749                       0
    25   2      18.719999999999999              1.71976956                       0
    26   1                   21.84      1.6685829999999999                       0
    27   3      24.960000000000001              1.61494833                       0
    28   2      28.079999999999998      4.6799999999999997                       0
    29   5      31.199999999999999      4.6250516700000004                       0
    30   3                   34.32      4.5714170000000003                       0
    31   5      37.439999999999998      4.5202304399999997                       0
    32   1      40.560000000000002      4.4723250999999999                       0
    33   4                   43.68      4.4281934300000003                       0
    34   2      46.799999999999997      4.3880194100000001                       0
    35   3      49.920000000000002              4.35175014                       0
    36   5      53.039999999999999      4.3191759899999997                       0
    37   3                       0      5.0700000000000003                       0
    38   1      3.1200000000000001      5.0408240099999997                       0
    39   2      6.2400000000000002      5.0082498600000003                       0
    40   5      9.3599999999999994      4.9719805900000003                       0
    41   1                   12.48              4.93180657                       0
    42   1                    15.6      4.8876749000000004                       0
    43   4      18.719999999999999      4.8397695599999997                       0
    44   4                   21.84                4.788583                       0
    45   2      24.960000000000001      4.7349483299999999                       0
    46   2      28.079999999999998      7.7999999999999998                       0
    47   1      31.199999999999999      7.7450516699999996                       0
    48   4                   34.32      7.6914170000000004                       0
    49   1      37.439999999999998      7.6402304399999998                       0
    50   1      40.560000000000002               7.5923251                       0
    51   3                   43.68      7.5481934300000004                       0
    52   5      46.799999999999997      7.5080194100000002                       0
    53   4      49.920000000000002      7.4717501400000002                       0
    54   1      53.039999999999999      7.4391759899999998                       0
    55   2                       0      8.1899999999999995                       0
    56   4      3.1200000000000001      8.1608240100000007                       0
    57   1      6.2400000000000002      8.1282498600000004                       0
    58   2      9.3599999999999994      8.0919805900000004                       0
    59   5                   12.48      8.0518065700000001                       0
    60   3                    15.6      8.0076748999999996                       0
    61   3      18.719999999999999      7.9597695599999998                       0
    62   2                   21.84      7.9085830000000001                       0
    63   1      24.960000000000001              7.85494833                       0
    64   1      28.079999999999998                   10.92                       0
    65   2      31.199999999999999             10.86505167                       0
    66   3                   34.32               10.811417                       0
    67   2      37.439999999999998      10.760230440000001                       0
    68   2      40.560000000000002      10.712325099999999                       0
    69   2                   43.68      10.668193430000001                       0
    70   5      46.799999999999997             10.62801941                       0
    71   4      49.920000000000002             10.59175014                       0
    72   1      53.039999999999999             10.55917599                       0
    73   4                       0                   11.31                       0
    74   2      3.1200000000000001             11.28082401                       0
    75   4      6.2400000000000002             11.24824986                       0
    76   1      9.3599999999999994             11.21198059                       0
    77   2                   12.48      11.171806569999999                       0
    78   4                    15.6      11.127674900000001                       0
    79   5      18.719999999999999      11.079769560000001                       0
    80   2                   21.84      11.028582999999999                       0
    81   1      24.960000000000001             10.97494833                       0
    82   1      28.079999999999998      14.039999999999999                       0
    83   2      31.199999999999999      13.985051670000001                       0
    84   5                   34.32               13.931417                       0
    85   2      37.439999999999998             13.88023044                       0
    86   4      40.560000000000002              13.8323251                       0
    87   1                   43.68             13.78819343                       0
    88   5      46.799999999999997      13.748019409999999                       0
    89   4      49.920000000000002      13.711750139999999                       0
    90   2      53.039999999999999      13.679175989999999                       0
    91   1                       0                   14.43                       0
    92   4      3.1200000000000001      14.400824009999999                       0
    93   2      6.2400000000000002      14.368249860000001                       0
    94   1      9.3599999999999994      14.331980590000001                       0
    95   2                   12.48             14.29180657                       0
    96   5                    15.6              14.2476749                       0
    97   2      18.719999999999999             14.19976956                       0
    98   3                   21.84               14.148583                       0
    99   2      24.960000000000001      14.094948329999999                       0
   100   5      28.079999999999998                   17.16                       0
   101   5      31.199999999999999      17.105051670000002                       0
   102   4                   34.32      17.051417000000001                       0
   103   2      37.439999999999998      17.000230439999999                       0
   104   4      40.560000000000002      16.952325099999999                       0
   105   3                   43.68      16.908193430000001                       0
   106   3      46.799999999999997      16.868019409999999                       0
   107   3      49.920000000000002             16.83175014                       0
   108   2      53.039999999999999      16.799175989999998                       0
   109   4                       0      17.550000000000001                       0
   110   1      3.1200000000000001      17.520824009999998                       0
   111   5      6.2400000000000002             17.48824986                       0
   112   5      9.3599999999999994      17.451980590000002                       0
   113   4                   12.48             17.41180657                       0
   114   3                    15.6      17.367674900000001                       0
   115   5      18.719999999999999      17.319769560000001                       0
   116   2                   21.84               17.268583                       0
   117   4      24.960000000000001      17.214948329999999                       0
   118   4      28.079999999999998      20.280000000000001                       0
   119   1      31.199999999999999      20.225051669999999                       0
   120   2                   34.32      20.171417000000002                       0
   121   1      37.439999999999998             20.12023044                       0
   122   3      40.560000000000002              20.0723251                       0
   123   4                   43.68      20.028193430000002                       0
   124   3      46.799999999999997             19.98801941                       0
   125   4      49.920000000000002      19.951750140000001                       0
   126   1      53.039999999999999      19.919175989999999                       0
   127   5                       0      20.670000000000002                       0
   128   5      3.1200000000000001      20.640824009999999                       0
   129   3      6.2400000000000002      20.608249860000001                       0
   130   3      9.3599999999999994      20.571980589999999                       0
   131   1                   12.48      20.531806570000001                       0
   132   4                    15.6      20.487674899999998                       0
   133   5      18.719999999999999      20.439769559999998                       0
   134   5                   21.84      20.388583000000001                       0
   135   2      24.960000000000001             20.33494833                       0
   136   3      28.079999999999998      23.399999999999999                       0
   137   4      31.199999999999999             23.34505167                       0
   138   3                   34.32      23.291416999999999                       0
   139   2      37.439999999999998      23.240230440000001                       0
   140   4      40.560000000000002      23.192325100000001                       0
   141   4                   43.68      23.148193429999999                       0
   142   2      46.799999999999997      23.108019410000001                       0
   143   3      49.920000000000002      23.071750139999999                       0
   144   2      53.039999999999999             23.03917599                       0
   145   1                       0      23.789999999999999                       0
   146   3      3.1200000000000001             23.76082401                       0
   147   1      6.2400000000000002      23.728249859999998                       0
   148   4      9.3599999999999994             23.69198059                       0
   149   1                   12.48      23.651806570000002                       0
   150   1                    15.6      23.607674899999999                       0
   151   3      18.719999999999999      23.559769559999999                       0
   152   4                   21.84      23.508583000000002                       0
   153   1      24.960000000000001      23.454948330000001                       0
   154   5      28.079999999999998                   26.52                       0
   155   2      31.199999999999999      26.465051670000001                       0
   156   1                   34.32               26.411417                       0
   157   1      37.439999999999998      26.360230439999999                       0
   158   2      40.560000000000002      26.312325099999999                       0
   159   2                   43.68             26.26819343                       0
   160   2      46.799999999999997      26.228019410000002                       0
   161   1      49.920000000000002             26.19175014                       0
   162   2      53.039999999999999      26.159175990000001                       0
   163   4                       0                   26.91                       0
   164   2      3.1200000000000001      26.880824010000001                       0
   165   2      6.2400000000000002      26.848249859999999                       0
   166   3      9.3599999999999994      26.811980590000001                       0
   167   4                   12.48      26.771806569999999                       0
   168   1                    15.6              26.7276749                       0
   169   1      18.719999999999999             26.67976956                       0
   170   2                   21.84      26.628582999999999                       0
   171   3      24.960000000000001      26.574948330000002                       0
   172   4      28.079999999999998      29.640000000000001                       0
   173   2      31.199999999999999      29.585051669999999                       0
   174   4                   34.32      29.531417000000001                       0
   175   4      37.439999999999998             29.48023044                       0
   176   1      40.560000000000002              29.4323251                       0
   177   2                   43.68      29.388193430000001                       0
   178   5      46.799999999999997      29.348019409999999                       0
   179   2      49.920000000000002      29.311750140000001                       0
   180   2      53.039999999999999      29.279175989999999                       0
   181   1                       0      30.030000000000001                       0
   182   3      3.1200000000000001      30.000824009999999                       0
   183   1      6.2400000000000002             29.96824986                       0
   184   1      9.3599999999999994      29.931980589999998                       0
   185   1                   12.48             29.89180657                       0
   186   1                    15.6      29.847674900000001                       0
   187   1      18.719999999999999      29.799769560000001                       0
   188   3                   21.84               29.748583                       0
   189   1      24.960000000000001      29.694948329999999                       0
   190   1      28.079999999999998      32.759999999999998                       0
   191   2      31.199999999999999      32.705051670000003                       0
   192   2                   34.32      32.651417000000002                       0
   193   5      37.439999999999998      32.600230439999997                       0
   194   5      40.560000000000002      32.552325099999997                       0
   195   1                   43.68      32.508193429999999                       0
   196   3      46.799999999999997      32.468019409999997                       0
   197   2      49.920000000000002      32.431750139999998                       0
   198   2      53.039999999999999      32.399175990000003                       0
   199   5                       0      33.149999999999999                       0
   200   5      3.1200000000000001             33.12082401                       0
   201   1      6.2400000000000002      33.088249859999998                       0
   202   5      9.3599999999999994      33.051980589999999                       0
   203   5                   12.48      33.011806569999997                       0
   204   1                    15.6      32.967674899999999                       0
   205   5      18.719999999999999      32.919769559999999                       0
   206   1                   21.84      32.868583000000001                       0
   207   3      24.960000000000001             32.81494833                       0
   208   5      28.079999999999998      35.880000000000003                       0
   209   1      31.199999999999999      35.825051670000001                       0
   210   2                   34.32               35.771417                       0
   211   4      37.439999999999998      35.720230440000002                       0
   212   1      40.560000000000002      35.672325100000002                       0
   213   1                   43.68      35.628193430000003                       0
   214   3      46.799999999999997      35.588019410000001                       0
   215   3      49.920000000000002      35.551750140000003                       0
   216   3      53.039999999999999      35.519175990000001                       0
   217   1                       0      36.270000000000003                       0
   218   5      3.1200000000000001      36.240824009999997                       0
   219   5      6.2400000000000002      36.208249860000002                       0
   220   5      9.3599999999999994      36.171980589999997                       0
   221   2                   12.48      36.131806570000002                       0
   222   4                    15.6      36.087674900000003                       0
   223   4      18.719999999999999      36.039769560000003                       0
   224   1                   21.84      35.988582999999998                       0
   225   4      24.960000000000001      35.934948329999997                       0
   226   3      28.079999999999998                      39                       0
   227   5      31.199999999999999      38.945051669999998                       0
   228   5                   34.32      38.891416999999997                       0
   229   5      37.439999999999998      38.840230439999999                       0
   230   2      40.560000000000002      38.792325099999999                       0
   231   2                   43.68      38.748193430000001                       0
   232   3      46.799999999999997      38.708019409999999                       0
   233   2      49.920000000000002             38.67175014                       0
   234   4      53.039999999999999      38.639175989999998                       0
   235   5                       0      39.390000000000001                       0
   236   5      3.1200000000000001      39.360824010000002                       0
   237   4      6.2400000000000002             39.32824986                       0
   238   2      9.3599999999999994      39.291980590000001                       0
   239   1                   12.48      39.251806569999999                       0
   240   5                    15.6      39.207674900000001                       0
   241   3      18.719999999999999      39.159769560000001                       0
   242   2                   21.84      39.108583000000003                       0
   243   5      24.960000000000001      39.054948330000002                       0
   244   2      28.079999999999998      42.119999999999997                       0
   245   3      31.199999999999999      42.065051670000003                       0
   246   5                   34.32      42.011417000000002                       0
   247   2      37.439999999999998      41.960230439999997                       0
   248   1      40.560000000000002      41.912325099999997                       0
   249   2                   43.68      41.868193429999998                       0
   250   1      46.799999999999997      41.828019410000003                       0
   251   4      49.920000000000002      41.791750139999998                       0
   252   1      53.039999999999999      41.759175990000003                       0
   253   5                       0      42.509999999999998                       0
   254   3      3.1200000000000001      42.480824009999999                       0
   255   1      6.2400000000000002      42.448249859999997                       0
   256   2      9.3599999999999994      42.411980589999999                       0
   257   1                   12.48      42.371806569999997                       0
   258   4                    15.6      42.327674899999998                       0
   259   1      18.719999999999999      42.279769559999998                       0
   260   1                   21.84               42.228583                       0
   261   1      24.960000000000001      42.174948329999999                       0
   262   1      28.079999999999998      45.240000000000002                       0
   263   4      31.199999999999999             45.18505167                       0
   264   4                   34.32      45.131416999999999                       0
   265   1      37.439999999999998      45.080230440000001                       0
   266   1      40.560000000000002      45.032325100000001                       0
   267   5                   43.68      44.988193430000003                       0
   268   4      46.799999999999997      44.948019410000001                       0
   269   5      49.920000000000002      44.911750140000002                       0
   270   3      53.039999999999999             44.87917599                       0
   271   1                       0      45.630000000000003                       0
   272   3      3.1200000000000001      45.600824009999997                       0
   273   5      6.2400000000000002      45.568249860000002                       0
   274   3      9.3599999999999994      45.531980590000003                       0
   275   3                   12.48      45.491806570000001                       0
   276   5                    15.6      45.447674900000003                       0
   277   5      18.719999999999999      45.399769560000003                       0
   278   4                   21.84      45.348582999999998                       0
   279   3      24.960000000000001      45.294948329999997                       0
   280   4      28.079999999999998      48.359999999999999                       0
   281   4      31.199999999999999      48.305051669999997                       0
   282   2                   34.32      48.251416999999996                       0
   283   5      37.439999999999998      48.200230439999999                       0
   284   4      40.560000000000002      48.152325099999999                       0
   285   1                   43.68             48.10819343                       0
   286   5      46.799999999999997      48.068019409999998                       0
   287   2      49.920000000000002             48.03175014                       0
   288   4      53.039999999999999      47.999175989999998                       0
   289   5                       0                   48.75                       0
   290   3      3.1200000000000001      48.720824010000001                       0
   291   1      6.2400000000000002      48.688249859999999                       0
   292   2      9.3599999999999994      48.651980590000001                       0
   293   2                   12.48      48.611806569999999                       0
   294   5                    15.6              48.5676749                       0
   295   1      18.719999999999999             48.51976956                       0
   296   2                   21.84      48.468583000000002                       0
   297   1      24.960000000000001      48.414948330000001                       0
   298   3      28.079999999999998      51.479999999999997                       0
   299   5      31.199999999999999      51.425051670000002                       0
   300   1                   34.32      51.371417000000001                       0
   301   4      37.439999999999998      51.320230440000003                       0
   302   1      40.560000000000002      51.272325100000003                       0
   303   2                   43.68      51.228193429999997                       0
   304   1      46.799999999999997      51.188019410000003                       0
   305   4      49.920000000000002      51.151750139999997                       0
   306   5      53.039999999999999      51.119175990000002                       0
   307   4                       0      51.869999999999997                       0
   308   4      3.1200000000000001      51.840824009999999                       0
   309   3      6.2400000000000002      51.808249859999997                       0
   310   3      9.3599999999999994      51.771980589999998                       0
   311   1                   12.48      51.731806570000003                       0
   312   4                    15.6      51.687674899999998                       0
   313   4      18.719999999999999      51.639769559999998                       0
   314   5                   21.84               51.588583                       0
   315   1      24.960000000000001      51.534948329999999                       0
   316   4      28.079999999999998      54.600000000000001                       0
   317   4      31.199999999999999      54.545051669999999                       0
   318   4                   34.32      54.491416999999998                       0
   319   3      37.439999999999998      54.440230440000001                       0
   320   5      40.560000000000002      54.392325100000001                       0
   321   4                   43.68      54.348193430000002                       0
   322   1      46.799999999999997             54.30801941                       0
   323   1      49.920000000000002      54.271750140000002                       0
   324   3      53.039999999999999             54.23917599                       0
   325   3                       0             -1.14082401      3.1200000000000001
   326   3      3.1200000000000001     -1.1699999999999999      3.1200000000000001
   327   4      6.2400000000000002             -1.20305532      3.1200000000000001
   328   2      9.3599999999999994             -1.24046089      3.1200000000000001
   329   3                   12.48             -1.28262001      3.1200000000000001
   330   4                    15.6     -1.3297695599999999      3.1200000000000001
   331   2      18.719999999999999     -1.3818476099999999      3.1200000000000001
   332   5                   21.84             -1.43835256      3.1200000000000001
   333   5      24.960000000000001             -1.49824986      3.1200000000000001
   334   2      28.079999999999998      1.5600000000000001      3.1200000000000001
   335   5      31.199999999999999              1.49824986      3.1200000000000001
   336   3                   34.32              1.43835256      3.1200000000000001
   337   1      37.439999999999998      1.3818476099999999      3.1200000000000001
   338   5      40.560000000000002      1.3297695599999999      3.1200000000000001
   339   4                   43.68              1.28262001      3.1200000000000001
   340   3      46.799999999999997              1.24046089      3.1200000000000001
   341   1      49.920000000000002              1.20305532      3.1200000000000001
   342   4      53.039999999999999      1.1699999999999999      3.1200000000000001
   343   5                       0      1.9791759900000001      3.1200000000000001
   344   1      3.1200000000000001                    1.95      3.1200000000000001
   345   2      6.2400000000000002      1.9169446800000001      3.1200000000000001
   346   4      9.3599999999999994      1.8795391100000001      3.1200000000000001
   347   3                   12.48      1.8373799900000001      3.1200000000000001
   348   1                    15.6              1.79023044      3.1200000000000001
   349   5      18.719999999999999              1.73815239      3.1200000000000001
   350   2                   21.84      1.6816474400000001      3.1200000000000001
   351   4      24.960000000000001      1.6217501400000001      3.1200000000000001
   352   5      28.079999999999998      4.6799999999999997      3.1200000000000001
   353   3      31.199999999999999      4.6182498599999997      3.1200000000000001
   354   2                   34.32      4.5583525600000003      3.1200000000000001
   355   2      37.439999999999998      4.5018476100000004      3.1200000000000001
   356   5      40.560000000000002              4.44976956      3.1200000000000001
   357   4                   43.68      4.4026200099999997      3.1200000000000001
   358   1      46.799999999999997      4.3604608899999997      3.1200000000000001