ITEM: TIMESTEP
0
ITEM: NUMBER OF ATOMS
11664
ITEM: BOX BOUNDS pp pp pp
0.0000000000000000e+00 5.6159999999999997e+01
0.0000000000000000e+00 5.6159999999999997e+01
0.0000000000000000e+00 5.6159999999999997e+01
ITEM: ATOMS id type x y z v_sa_hydro v_sa_von
19 1 0 1.95 0 -21.7237 56.0686
5833 4 1.56 0.39 1.56 -10.8192 13.2903
20 1 3.12 1.92082 0 -3.3523 32.047
5834 3 4.68 0.359005 1.56 9.40167 10.5208
21 2 6.24 1.88825 0 5.08076 29.5167
5835 4 7.8 0.32418 1.56 -14.2461 7.74908
22 2 9.36 1.85198 0 -3.03312 30.6742
5836 5 10.92 0.285179 1.56 -7.74458 14.8584
23 1 12.48 1.81181 0 -10.3919 35.0643
5837 3 14.04 0.241776 1.56 7.52117 9.39315
24 2 15.6 1.76767 0 -1.8925 31.9661
5838 4 17.16 0.193961 1.56 -12.7055 13.8864
25 2 18.72 1.71977 0 -7.98796 36.497
5839 3 20.28 0.142043 1.56 12.4568 5.81214
26 2 21.84 1.66858 0 -3.34762 33.6011
5840 3 23.4 0.0867358 1.56 14.8719 6.57042
27 1 24.96 1.61495 0 -16.1045 43.0246
5841 5 26.52 0.029176 1.56 0.856611 14.2371
10 1 28.08 1.56 0 -20.149 46.8886
11 2 31.2 1.50505 0 -7.20212 36.6156
12 1 34.32 1.45142 0 -18.2903 39.71
13 2 37.44 1.40023 0 -0.774683 28.406
14 1 40.56 1.35233 0 -5.95533 27.687
5845 3 39 2.92604 1.56 11.0351 9.55712
15 1 43.68 1.30819 0 -12.4859 34.218
5846 5 42.12 2.87822 1.56 -9.11334 12.5195
16 2 46.8 1.26802 0 -5.1592 31.1614
5847 4 45.24 2.83482 1.56 -16.6391 15.2595
17 2 49.92 1.23175 0 -1.74714 35.4831
5848 5 48.36 2.79582 1.56 -11.223 9.44632
18 1 53.04 1.19918 0 -12.906 37.2384
5849 3 51.48 2.76099 1.56 8.9321 6.79435
5850 5 54.6 2.73 1.56 -13.0223 28.9222
37 1 0 5.07 0 -11.8171 41.8646
5851 3 1.56 3.51 1.56 10.4058 6.49137
38 1 3.12 5.04082 0 -3.40633 29.3224
5852 4 4.68 3.47901 1.56 -10.0455 12.9027
39 1 6.24 5.00825 0 -8.20707 35.9851
5853 3 7.8 3.44418 1.56 10.1852 8.72619
40 1 9.36 4.97198 0 -12.9672 40.6609
5854 5 10.92 3.40518 1.56 -9.20382 10.4807
41 2 12.48 4.93181 0 -8.46506 35.5293
5855 4 14.04 3.36178 1.56 -12.6561 13.6455
42 2 15.6 4.88767 0 -9.00184 35.8686
5856 5 17.16 3.31396 1.56 -7.36285 19.8018
43 2 18.72 4.83977 0 -7.04172 34.7605
5857 5 20.28 3.26204 1.56 1.10267 13.349
44 2 21.84 4.78858 0 -6.8558 36.5697
5858 3 23.4 3.20674 1.56 14.1927 9.04841
45 1 24.96 4.73495 0 -18.0863 43.0426
5859 3 26.52 3.14918 1.56 12.7903 7.8525
28 2 28.08 4.68 0 -4.90325 35.4787
29 2 31.2 4.62505 0 -0.819867 34.1221
5842 3 29.64 3.09082 1.56 15.4713 9.7077
30 1 34.32 4.57142 0 -13.3568 40.9729
5843 5 32.76 3.03326 1.56 -1.22231 15.7062
31 1 37.44 4.52023 0 -15.8775 46.5856
5844 5 35.88 2.97796 1.56 -3.86296 14.2134
32 1 40.56 4.47233 0 -16.3616 43.2501
33 2 43.68 4.42819 0 -8.82036 33.8621
34 1 46.8 4.38802 0 -18.4701 41.2751
35 2 49.92 4.35175 0 -0.839424 31.928
36 1 53.04 4.31918 0 -6.06239 36.2675
5867 3 51.48 5.88099 1.56 11.4727 5.26174
5868 3 54.6 5.85 1.56 2.62408 15.6928
55 2 0 8.19 0 -12.9161 51.8454
5869 5 1.56 6.63 1.56 -1.28002 10.6132
56 2 3.12 8.16082 0 1.29272 29.6911
5870 3 4.68 6.59901 1.56 9.88106 5.8226
57 2 6.24 8.12825 0 -0.167596 34.2792
5871 3 7.8 6.56418 1.56 12.0916 4.84064
58 2 9.36 8.09198 0 -3.79974 34.4392
5872 5 10.92 6.52518 1.56 -7.47411 15.1267
59 1 12.48 8.05181 0 -18.2447 40.2863
5873 4 14.04 6.48178 1.56 -19.2239 14.1392
60 1 15.6 8.00767 0 -20.4631 39.1015
5874 4 17.16 6.43396 1.56 -14.8272 9.94783
61 2 18.72 7.95977 0 -2.67091 30.0917
5875 3 20.28 6.38204 1.56 13.7471 13.5856
62 2 21.84 7.90858 0 -3.88977 31.6348
5876 4 23.4 6.32674 1.56 -10.1964 13.4548
63 2 24.96 7.85495 0 -10.2641 34.4279
5877 4 26.52 6.26918 1.56 -10.7597 9.81445
46 1 28.08 7.8 0 -19.9482 45.0895
47 2 31.2 7.74505 0 -2.88542 31.9921
5860 3 29.64 6.21082 1.56 11.2034 8.53916
48 2 34.32 7.69142 0 3.6531 19.5792
5861 5 32.76 6.15326 1.56 -1.20889 21.1594
49 2 37.44 7.64023 0 1.37692 25.7171
5862 3 35.88 6.09796 1.56 13.5919 9.51896
50 2 40.56 7.59233 0 -4.32657 35.295
5863 3 39 6.04604 1.56 12.4771 4.972
51 1 43.68 7.54819 0 -9.80294 39.5394
5864 4 42.12 5.99822 1.56 -13.2092 7.62792
52 2 46.8 7.50802 0 6.55952 23.1241
5865 4 45.24 5.95482 1.56 -16.2144 10.3054
53 1 49.92 7.47175 0 -4.37759 33.8803
5866 4 48.36 5.91582 1.56 -13.3633 11.912
54 2 53.04 7.43918 0 2.63257 30.2488
73 1 0 11.31 0 -17.934 50.007
5887 3 1.56 9.75 1.56 11.6506 6.41842
74 1 3.12 11.2808 0 -3.49844 34.4745
5888 5 4.68 9.71901 1.56 -5.88285 12.9907
75 1 6.24 11.2482 0 -7.39401 34.7126
5889 4 7.8 9.68418 1.56 -13.8346 11.6955
76 2 9.36 11.212 0 5.30639 20.2115
5890 5 10.92 9.64518 1.56 -9.65846 13.5116
77 1 12.48 11.1718 0 -7.11599 24.8257
5891 4 14.04 9.60178 1.56 -15.1806 20.1935
78 2 15.6 11.1277 0 -1.96091 29.992
5892 4 17.16 9.55396 1.56 -15.886 11.3994
79 2 18.72 11.0798 0 -10.0615 35.0991
5893 4 20.28 9.50204 1.56 -14.0945 13.5138
80 1 21.84 11.0286 0 -25.0905 45.0222
5894 4 23.4 9.44674 1.56 -15.4592 15.2325
81 1 24.96 10.9749 0 -19.0806 44.1911
5895 3 26.52 9.38918 1.56 9.1452 7.87315
64 1 28.08 10.92 0 -14.6725 42.0433
65 1 31.2 10.8651 0 -20.5929 44.8002
5878 5 29.64 9.33082 1.56 -4.10294 7.71746
66 2 34.32 10.8114 0 -4.42923 29.9026
5879 4 32.76 9.27326 1.56 -12.8809 20.8966
67 1 37.44 10.7602 0 -14.9953 37.1745
5880 5 35.88 9.21796 1.56 -5.97291 16.5425
68 2 40.56 10.7123 0 -1.18655 29.0392
5881 5 39 9.16604 1.56 -4.68045 6.04905
69 1 43.68 10.6682 0 -8.72873 31.9786
5882 3 42.12 9.11822 1.56 12.0345 9.3315
70 2 46.8 10.628 0 2.49617 28.5115
5883 3 45.24 9.07482 1.56 12.4475 6.63441
71 2 49.92 10.5918 0 5.42685 29.3881
5884 5 48.36 9.03582 1.56 -1.6923 16.9091
72 2 53.04 10.5592 0 -0.412557 31.8772
5885 3 51.48 9.00099 1.56 12.9713 10.567
5886 4 54.6 8.97 1.56 -18.0738 25.1519
91 1 0 14.43 0 -27.6525 58.9159
5905 4 1.56 12.87 1.56 -13.1102 9.69755
92 1 3.12 14.4008 0 -10.9642 34.4639
5906 3 4.68 12.839 1.56 6.28566 6.51325
93 1 6.24 14.3682 0 -9.91525 34.1012
5907 4 7.8 12.8042 1.56 -12.879 11.3172
94 1 9.36 14.332 0 -12.3561 35.0181
5908 5 10.92 12.7652 1.56 -7.73219 15.7853
95 1 12.48 14.2918 0 -15.0851 37.1487
5909 4 14.04 12.7218 1.56 -12.9812 11.6662
96 1 15.6 14.2477 0 -10.9664 38.5096
5910 3 17.16 12.674 1.56 9.77691 12.7918
97 2 18.72 14.1998 0 5.43183 21.156
5911 4 20.28 12.622 1.56 -9.04367 15.8813
98 2 21.84 14.1486 0 2.27603 19.568
5912 4 23.4 12.5667 1.56 -14.5598 14.3108
99 1 24.96 14.0949 0 -14.1113 38.0964
5913 3 26.52 12.5092 1.56 11.7196 6.32174
82 1 28.08 14.04 0 -18.748 44.0907
83 2 31.2 13.9851 0 -1.45391 31.5234
5896 3 29.64 12.4508 1.56 12.2591 10.2222
84 1 34.32 13.9314 0 -7.12214 28.5355
5897 5 32.76 12.3933 1.56 -5.08208 10.6054
85 1 37.44 13.8802 0 -15.0961 38.1752
5898 5 35.88 12.338 1.56 -9.46518 16.3311
86 2 40.56 13.8323 0 -10.1017 35.2909
5899 5 39 12.286 1.56 -11.9713 12.745
87 1 43.68 13.7882 0 -18.8911 39.0776
5900 4 42.12 12.2382 1.56 -14.7327 10.9024
88 2 46.8 13.748 0 0.905386 27.3159
5901 5 45.24 12.1948 1.56 -9.79309 10.4252
89 1 49.92 13.7118 0 -4.92222 31.204
5902 5 48.36 12.1558 1.56 -4.53087 16.234
90 2 53.04 13.6792 0 -0.586363 30.8077
5903 3 51.48 12.121 1.56 9.80442 7.14209
5904 4 54.6 12.09 1.56 -22.7577 24.5273
109 2 0 17.55 0 -7.77184 42.9648
5923 4 1.56 15.99 1.56 -14.396 6.00865
110 2 3.12 17.5208 0 6.40393 22.3712
5924 5 4.68 15.959 1.56 -3.46617 7.77643
111 1 6.24 17.4882 0 -2.93329 31.4549
5925 3 7.8 15.9242 1.56 10.5134 4.07873
112 2 9.36 17.452 0 5.77579 34.0287
5926 3 10.92 15.8852 1.56 12.622 8.8716
113 2 12.48 17.4118 0 7.42019 25.3956
5927 3 14.04 15.8418 1.56 12.8278 13.4408
114 2 15.6 17.3677 0 -1.7811 31.7932
5928 4 17.16 15.794 1.56 -9.9635 6.31823
115 2 18.72 17.3198 0 -8.79081 38.5451
5929 3 20.28 15.742 1.56 11.1771 12.3624
116 2 21.84 17.2686 0 -9.83375 37.5526
5930 4 23.4 15.6867 1.56 -11.3323 18.951
117 2 24.96 17.2149 0 -3.68776 28.6564
5931 5 26.52 15.6292 1.56 -1.65064 19.9673
100 2 28.08 17.16 0 3.07934 19.9862
101 2 31.2 17.1051 0 3.17617 20.7117
5914 4 29.64 15.5708 1.56 -10.8463 10.7502
102 1 34.32 17.0514 0 -13.3497 37.4104
5915 3 32.76 15.5133 1.56 10.3078 11.6427
103 1 37.44 17.0002 0 -19.4606 44.7814
5916 5 35.88 15.458 1.56 -6.55316 18.4522
104 2 40.56 16.9523 0 -8.17844 38.3618
5917 5 39 15.406 1.56 -9.43003 12.9484
105 1 43.68 16.9082 0 -15.8727 43.0386
5918 4 42.12 15.3582 1.56 -18.7547 11.3197
106 2 46.8 16.868 0 -0.0323334 35.8747
5919 5 45.24 15.3148 1.56 -9.8339 9.64927
107 1 49.92 16.8318 0 -8.03022 39.5759
5920 5 48.36 15.2758 1.56 -5.06359 7.36082
108 1 53.04 16.7992 0 -9.03392 38.9965
5921 3 51.48 15.241 1.56 9.76915 7.35959
5922 4 54.6 15.21 1.56 -22.7076 27.4363
127 1 0 20.67 0 -20.7265 56.5423
5941 3 1.56 19.11 1.56 13.338 10.22
128 1 3.12 20.6408 0 -6.13491 37.6538
5942 3 4.68 19.079 1.56 12.9898 4.71262
129 1 6.24 20.6082 0 -6.28381 35.6962
5943 3 7.8 19.0442 1.56 13.7504 8.05436
130 1 9.36 20.572 0 -9.05297 34.7884
5944 4 10.92 19.0052 1.56 -8.41029 12.887
131 2 12.48 20.5318 0 -5.87688 32.2017
5945 4 14.04 18.9618 1.56 -15.6384 10.3221
132 2 15.6 20.4877 0 -9.25488 34.3213
5946 5 17.16 18.914 1.56 -12.5989 13.5705
133 2 18.72 20.4398 0 -8.65997 33.4394
5947 5 20.28 18.862 1.56 -9.33667 12.7353
134 1 21.84 20.3886 0 -18.3124 40.2995
5948 4 23.4 18.8067 1.56 -12.0781 8.30085
135 2 24.96 20.3349 0 -7.41904 36.6944
5949 3 26.52 18.7492 1.56 11.6759 10.3389
118 2 28.08 20.28 0 -6.91523 35.6684
119 2 31.2 20.2251 0 -1.2632 28.6365
5932 5 29.64 18.6908 1.56 -0.809082 16.658
120 2 34.32 20.1714 0 4.61616 20.9506
5933 5 32.76 18.6333 1.56 -2.59774 20.9776
121 1 37.44 20.1202 0 -11.8811 39.1546
5934 5 35.88 18.578 1.56 -5.76388 11.7866
122 2 40.56 20.0723 0 -7.87823 33.2721
5935 3 39 18.526 1.56 9.87105 11.2364
123 2 43.68 20.0282 0 1.03025 28.186
5936 5 42.12 18.4782 1.56 -7.18527 14.2294
124 2 46.8 19.988 0 9.555 15.2531
5937 3 45.24 18.4348 1.56 12.2543 5.10979
125 1 49.92 19.9518 0 -4.2552 27.4562
5938 3 48.36 18.3958 1.56 12.4216 6.68083
126 2 53.04 19.9192 0 1.0716 25.7101
5939 3 51.48 18.361 1.56 11.4968 5.33007
5940 3 54.6 18.33 1.56 5.8301 15.2501
5959 5 1.56 22.23 1.56 -4.38445 7.09951
5960 3 4.68 22.199 1.56 13.6434 7.56907
5961 3 7.8 22.1642 1.56 14.3565 5.08347
5962 3 10.92 22.1252 1.56 11.2738 9.3257
5963 5 14.04 22.0818 1.56 -6.14804 18.8199
150 2 15.6 23.6077 0 -2.52073 31.2632
5964 4 17.16 22.034 1.56 -17.6027 11.4419
151 2 18.72 23.5598 0 -3.77652 30.3586
5965 5 20.28 21.982 1.56 -6.85149 14.3438
152 2 21.84 23.5086 0 4.02028 20.6877
5966 3 23.4 21.9267 1.56 12.0038 14.0064
153 1 24.96 23.4549 0 -14.8127 39.2165
5967 4 26.52 21.8692 1.56 -9.58961 8.98921
136 1 28.08 23.4 0 -23.3539 47.6535
137 1 31.2 23.3451 0 -14.5815 39.9093
5950 3 29.64 21.8108 1.56 9.40045 9.08127
138 2 34.32 23.2914 0 -1.53046 29.5545
5951 5 32.76 21.7533 1.56 0.110701 19.3574
139 1 37.44 23.2402 0 -10.3191 35.9253
5952 3 35.88 21.698 1.56 10.4914 9.80489
140 1 40.56 23.1923 0 -10.3193 40.9885
5953 4 39 21.646 1.56 -10.786 5.72962
141 1 43.68 23.1482 0 -16.3067 41.514
5954 5 42.12 21.5982 1.56 -5.82249 14.3455
142 1 46.8 23.108 0 -16.7106 38.4023
5955 5 45.24 21.5548 1.56 -6.91054 11.7734
143 2 49.92 23.0718 0 3.50682 30.7798
5956 4 48.36 21.5158 1.56 -13.7135 10.7871
144 2 53.04 23.0392 0 6.31581 28.8188
5957 5 51.48 21.481 1.56 -9.28378 13.8659
5958 5 54.6 21.45 1.56 -13.2494 32.6647
145 2 0 23.79 0 -6.3169 41.6924
5977 3 1.56 25.35 1.56 12.5117 10.3789
146 2 3.12 23.7608 0 6.44828 25.8913
5978 5 4.68 25.319 1.56 -8.75909 13.5498
147 2 6.24 23.7282 0 5.61081 29.228
5979 5 7.8 25.2842 1.56 -8.18877 14.6503
148 2 9.36 23.692 0 -1.76661 36.3381
5980 4 10.92 25.2452 1.56 -11.9632 12.31
149 1 12.48 23.6518 0 -10.3413 38.8022
5981 5 14.04 25.2018 1.56 -7.42277 16.1133
5982 5 17.16 25.154 1.56 -10.8141 14.381
5983 5 20.28 25.102 1.56 -2.35429 20.2475
5984 5 23.4 25.0467 1.56 -6.09551 12.9325
171 1 24.96 26.5749 0 -19.8511 43.0727
5985 5 26.52 24.9892 1.56 -8.61667 12.6379
154 2 28.08 26.52 0 -8.08256 37.7941
155 1 31.2 26.4651 0 -20.0079 46.9229
5968 4 29.64 24.9308 1.56 -12.0431 12.095
156 2 34.32 26.4114 0 -8.76412 36.9572
5969 5 32.76 24.8733 1.56 -5.6822 15.1915
157 1 37.44 26.3602 0 -12.5826 33.095
5970 4 35.88 24.818 1.56 -12.5733 6.23768
158 2 40.56 26.3123 0 3.67635 30.1342
5971 3 39 24.766 1.56 13.6113 10.3703
159 2 43.68 26.2682 0 -4.36824 36.5811
5972 3 42.12 24.7182 1.56 12.284 7.97061
160 2 46.8 26.228 0 -5.90042 34.2562
5973 4 45.24 24.6748 1.56 -14.1805 18.1905
161 2 49.92 26.1918 0 3.36262 23.1931
5974 5 48.36 24.6358 1.56 -10.6721 10.8556
162 1 53.04 26.1592 0 -2.18023 25.3796
5975 3 51.48 24.601 1.56 10.7906 7.51497
5976 3 54.6 24.57 1.56 5.11763 17.2091
163 1 0 26.91 0 -17.2992 50.3978
5995 4 1.56 28.47 1.56 -9.44883 6.23967
164 1 3.12 26.8808 0 -12.1492 40.7655
5996 4 4.68 28.439 1.56 -16.3977 13.9592
165 1 6.24 26.8482 0 -9.67592 35.7711
5997 4 7.8 28.4042 1.56 -17.1341 7.03514
166 1 9.36 26.812 0 -3.25943 24.096
5998 3 10.92 28.3652 1.56 7.52827 7.01417
167 2 12.48 26.7718 0 3.25988 26.3326
5999 3 14.04 28.3218 1.56 9.24864 4.1651
168 1 15.6 26.7277 0 -16.1265 39.2859
6000 4 17.16 28.274 1.56 -8.16243 9.56902
169 2 18.72 26.6798 0 -0.624398 27.0204
6001 3 20.28 28.222 1.56 12.9548 12.5496
170 2 21.84 26.6286 0 -0.806004 26.8849
6002 5 23.4 28.1667 1.56 -1.54481 9.41343
6003 3 26.52 28.1092 1.56 12.4764 9.59203
5986 3 29.64 28.0508 1.56 15.3309 7.47631
174 2 34.32 29.5314 0 -2.23464 27.1493
5987 3 32.76 27.9933 1.56 12.533 6.56367
175 1 37.44 29.4802 0 -19.8249 39.6064
5988 4 35.88 27.938 1.56 -12.7393 17.6572
176 2 40.56 29.4323 0 -5.90318 30.8832
5989 5 39 27.886 1.56 -3.83726 10.375
177 2 43.68 29.3882 0 -5.91914 30.1138
5990 3 42.12 27.8382 1.56 13.0603 8.84983
178 2 46.8 29.348 0 -5.7188 31.6828
5991 4 45.24 27.7948 1.56 -16.3332 11.0891
179 1 49.92 29.3118 0 -13.8936 36.1075
5992 5 48.36 27.7558 1.56 -12.3335 10.9886
180 2 53.04 29.2792 0 5.14491 27.1214
5993 5 51.48 27.721 1.56 -3.94621 13.4104
5994 3 54.6 27.69 1.56 3.9281 20.0095
181 1 0 30.03 0 -11.13 43.8562
6013 3 1.56 31.59 1.56 10.6521 4.48183
182 2 3.12 30.0008 0 -1.43149 27.3604
6014 4 4.68 31.559 1.56 -14.851 6.89718
183 2 6.24 29.9682 0 -5.74634 30.4591
6015 4 7.8 31.5242 1.56 -17.0403 12.27
184 2 9.36 29.932 0 -4.59923 34.3097
6016 4 10.92 31.4852 1.56 -13.9956 12.9942
185 1 12.48 29.8918 0 -12.31 42.7176
6017 5 14.04 31.4418 1.56 -3.03139 15.18
186 2 15.6 29.8477 0 -4.20707 32.0353
6018 3 17.16 31.394 1.56 9.92006 8.9782
187 1 18.72 29.7998 0 -10.482 36.1911
6019 5 20.28 31.342 1.56 0.200554 4.5926
188 2 21.84 29.7486 0 6.43412 20.9293
6020 3 23.4 31.2867 1.56 9.94553 9.70529
189 1 24.96 29.6949 0 -13.0303 40.6898
6021 4 26.52 31.2292 1.56 -6.34661 7.13722
172 1 28.08 29.64 0 -10.6747 40.1405
173 1 31.2 29.5851 0 -3.37151 28.875
6004 3 29.64 31.1708 1.56 14.7277 11.555
6005 5 32.76 31.1133 1.56 0.0309591 16.6838
6006 4 35.88 31.058 1.56 -14.4643 12.0425
6007 5 39 31.006 1.56 -7.04362 15.8691
195 2 43.68 32.5082 0 0.60494 33.4094
6008 4 42.12 30.9582 1.56 -10.1544 14.3611
196 1 46.8 32.468 0 -7.73976 35.7475
6009 4 45.24 30.9148 1.56 -17.8477 10.4066
197 1 49.92 32.4318 0 -11.0173 37.1687
6010 5 48.36 30.8758 1.56 -10.9318 9.27845
198 2 53.04 32.3992 0 1.1919 28.5966
6011 5 51.48 30.841 1.56 -9.93382 9.26093
6012 3 54.6 30.81 1.56 6.953 19.9296
199 2 0 33.15 0 -4.60147 39.9125
6031 5 1.56 34.71 1.56 -1.13961 10.112
200 2 3.12 33.1208 0 1.27434 31.2203
6032 3 4.68 34.679 1.56 9.09336 7.87365
201 1 6.24 33.0882 0 -13.1306 33.8625
6033 3 7.8 34.6442 1.56 13.3846 9.27841
202 2 9.36 33.052 0 -2.17296 29.3314
6034 3 10.92 34.6052 1.56 11.3567 9.2046
203 1 12.48 33.0118 0 -9.573 32.4148
6035 5 14.04 34.5618 1.56 -5.60006 18.1274
204 2 15.6 32.9677 0 -1.31374 32.702
6036 4 17.16 34.514 1.56 -13.5332 10.4916
205 2 18.72 32.9198 0 -5.59946 34.1816
6037 3 20.28 34.462 1.56 9.24107 9.32967
206 2 21.84 32.8686 0 -0.294027 30.5269
6038 4 23.4 34.4067 1.56 -7.48092 7.29975
207 1 24.96 32.8149 0 -12.9787 39.9271
6039 3 26.52 34.3492 1.56 12.0887 11.7314
190 1 28.08 32.76 0 -18.5983 44.9038
191 2 31.2 32.7051 0 -7.53356 33.5297
6022 5 29.64 34.2908 1.56 -0.186832 11.2959
192 2 34.32 32.6514 0 -2.66533 31.2058
6023 5 32.76 34.2333 1.56 -6.72013 11.5453
193 1 37.44 32.6002 0 -4.71167 30.9325
6024 3 35.88 34.178 1.56 12.443 9.09398
194 1 40.56 32.5523 0 -8.91453 37.3909
6025 3 39 34.126 1.56 13.9393 7.70304
6026 3 42.12 34.0782 1.56 14.7785 8.23831
6027 5 45.24 34.0348 1.56 -5.07748 14.0371
6028 3 48.36 33.9958 1.56 8.63436 4.08457
6029 5 51.48 33.961 1.56 -7.98183 12.1462
6030 3 54.6 33.93 1.56 7.42191 16.1149
217 2 0 36.27 0 -5.02308 40.2673
6049 3 1.56 37.83 1.56 9.71423 8.22719
218 2 3.12 36.2408 0 1.20621 33.0623
6050 4 4.68 37.799 1.56 -11.8907 8.24279
219 2 6.24 36.2082 0 -1.56933 36.9092
6051 5 7.8 37.7642 1.56 -8.74046 10.3701
220 2 9.36 36.172 0 -2.37551 36.8854
6052 4 10.92 37.7252 1.56 -11.4112 13.1661
221 2 12.48 36.1318 0 -0.0539242 30.5107
6053 4 14.04 37.6818 1.56 -16.1888 15.1643
222 1 15.6 36.0877 0 -14.6946 37.9808
6054 4 17.16 37.634 1.56 -17.5888 14.143
223 1 18.72 36.0398 0 -20.7756 46.4389
6055 5 20.28 37.582 1.56 -7.99014 7.48272
224 1 21.84 35.9886 0 -19.6004 46.115
6056 3 23.4 37.5267 1.56 12.0733 7.57848
225 1 24.96 35.9349 0 -10.7697 39.0816
6057 3 26.52 37.4692 1.56 17.1968 6.9614
208 1 28.08 35.88 0 -8.65268 36.5285
209 1 31.2 35.8251 0 -19.1962 42.8293
6040 3 29.64 37.4108 1.56 12.7996 6.99056
210 1 34.32 35.7714 0 -18.5502 40.2297
6041 4 32.76 37.3533 1.56 -12.7734 17.0338
211 1 37.44 35.7202 0 -14.3222 37.8517
6042 5 35.88 37.298 1.56 -9.31025 11.0258
212 1 40.56 35.6723 0 -12.3355 40.2126
6043 5 39 37.246 1.56 -2.54604 8.95362
213 2 43.68 35.6282 0 2.09837 30.7822
6044 3 42.12 37.1982 1.56 15.5483 9.37318
214 1 46.8 35.588 0 -8.61772 34.7283
6045 4 45.24 37.1548 1.56 -11.3372 8.06206
215 1 49.92 35.5518 0 -7.11262 32.9079
6046 5 48.36 37.1158 1.56 -11.6705 15.0876
216 2 53.04 35.5192 0 6.03071 25.7738
6047 4 51.48 37.081 1.56 -12.1616 15.0269
6048 3 54.6 37.05 1.56 4.3268 19.1748
235 1 0 39.39 0 -15.149 53.0646
6067 4 1.56 40.95 1.56 -14.5617 8.4002
236 1 3.12 39.3608 0 -5.56302 33.0098
6068 4 4.68 40.919 1.56 -17.3906 12.9504
237 2 6.24 39.3282 0 -0.000382544 29.3136
6069 5 7.8 40.8842 1.56 -7.47134 4.81229
238 2 9.36 39.292 0 1.82592 26.678
6070 3 10.92 40.8452 1.56 10.5538 9.42961
239 2 12.48 39.2518 0 6.24953 18.3978
6071 5 14.04 40.8018 1.56 -6.74008 15.0751
240 1 15.6 39.2077 0 -7.97518 25.6685
6072 5 17.16 40.754 1.56 -10.9203 11.1098
241 1 18.72 39.1598 0 -14.5017 35.2275
6073 4 20.28 40.702 1.56 -14.7058 13.1566
242 2 21.84 39.1086 0 -4.96797 33.2246
6074 3 23.4 40.6467 1.56 13.7521 8.84305
243 1 24.96 39.0549 0 -15.6586 44.1136
6075 5 26.52 40.5892 1.56 1.85441 16.0605
226 1 28.08 39 0 -9.75357 38.9526
227 2 31.2 38.9451 0 -1.54085 30.0677
6058 3 29.64 40.5308 1.56 12.5046 9.52302
228 1 34.32 38.8914 0 -22.2118 44.421
6059 5 32.76 40.4733 1.56 -7.92737 13.4975
229 1 37.44 38.8402 0 -10.8878 36.5749
6060 5 35.88 40.418 1.56 -2.98383 13.7591
230 2 40.56 38.7923 0 3.31305 33.092
6061 3 39 40.366 1.56 15.2109 11.451
231 1 43.68 38.7482 0 -12.1853 42.0471
6062 3 42.12 40.3182 1.56 14.9566 4.53721
232 2 46.8 38.708 0 -3.90262 35.7524
6063 3 45.24 40.2748 1.56 12.1145 5.54641
233 1 49.92 38.6718 0 -15.819 38.4957
6064 5 48.36 40.2358 1.56 -10.9492 8.34782
234 1 53.04 38.6392 0 -7.27096 30.3428
6065 5 51.48 40.201 1.56 -14.1587 8.74677
6066 5 54.6 40.17 1.56 -16.2934 27.7039
253 1 0 42.51 0 -17.8324 54.4205
6085 5 1.56 44.07 1.56 -7.42808 9.80777
254 1 3.12 42.4808 0 -7.67931 28.699
6086 4 4.68 44.039 1.56 -15.2393 13.8579
255 2 6.24 42.4482 0 2.71273 30.2076
6087 3 7.8 44.0042 1.56 8.41857 10.9897
256 2 9.36 42.412 0 -1.96526 34.77
6088 4 10.92 43.9652 1.56 -15.4007 8.58625
257 2 12.48 42.3718 0 -4.40316 35.7459
6089 4 14.04 43.9218 1.56 -12.5734 9.60726
258 2 15.6 42.3277 0 -5.21111 32.0119
6090 3 17.16 43.874 1.56 10.3658 11.0905
259 1 18.72 42.2798 0 -12.956 35.2281
6091 4 20.28 43.822 1.56 -7.70474 13.5682
260 1 21.84 42.2286 0 -5.6024 28.3346
6092 3 23.4 43.7667 1.56 11.2452 10.1635
261 2 24.96 42.1749 0 5.88165 20.0944
6093 5 26.52 43.7092 1.56 -4.16213 22.3113
244 2 28.08 42.12 0 3.63256 19.4995
245 2 31.2 42.0651 0 -2.14472 26.9363
6076 4 29.64 43.6508 1.56 -10.7154 19.3795
246 2 34.32 42.0114 0 -6.47714 33.1543
6077 5 32.76 43.5933 1.56 -4.01874 9.86458
247 2 37.44 41.9602 0 -5.77917 34.5948
6078 3 35.88 43.538 1.56 14.6141 9.51937
248 1 40.56 41.9123 0 -15.8492 37.5523
6079 4 39 43.486 1.56 -9.99824 6.46719
249 2 43.68 41.8682 0 -0.678571 31.7717
6080 5 42.12 43.4382 1.56 -7.57049 7.77075
250 2 46.8 41.828 0 4.2884 31.1606
6081 3 45.24 43.3948 1.56 12.3636 5.22848
251 1 49.92 41.7918 0 -3.27338 21.7611
6082 5 48.36 43.3558 1.56 -7.01648 10.4197
252 2 53.04 41.7592 0 6.21483 15.4064
6083 5 51.48 43.321 1.56 -11.294 11.7778
6084 4 54.6 43.29 1.56 -24.252 26.1291
271 1 0 45.63 0 -12.037 44.8891
6103 3 1.56 47.19 1.56 8.11701 5.04004
272 1 3.12 45.6008 0 -6.12294 25.9806
6104 4 4.68 47.159 1.56 -16.4221 8.42971
273 1 6.24 45.5682 0 -6.83822 33.4837
6105 5 7.8 47.1242 1.56 -9.30946 11.6572
274 1 9.36 45.532 0 -9.58197 37.1863
6106 4 10.92 47.0852 1.56 -15.2791 10.2203
275 1 12.48 45.4918 0 -16.815 39.2235
6107 3 14.04 47.0418 1.56 9.77302 12.2751
276 2 15.6 45.4477 0 1.24502 31.0827
6108 4 17.16 46.994 1.56 -4.96557 7.23804
277 2 18.72 45.3998 0 -0.25563 31.3914
6109 3 20.28 46.942 1.56 9.06915 9.42651
278 1 21.84 45.3486 0 -18.1363 43.7115
6110 5 23.4 46.8867 1.56 -3.34035 15.043
279 1 24.96 45.2949 0 -13.147 38.3913
6111 4 26.52 46.8292 1.56 -17.3551 14.9964
262 1 28.08 45.24 0 -15.5865 35.9862
263 1 31.2 45.1851 0 -13.1876 35.8372
6094 5 29.64 46.7708 1.56 -4.44907 13.6912
264 1 34.32 45.1314 0 -8.52325 38.1129
6095 3 32.76 46.7133 1.56 12.2411 5.78791
265 1 37.44 45.0802 0 -13.789 41.0128
6096 3 35.88 46.658 1.56 16.254 1.7531
266 1 40.56 45.0323 0 -17.4634 44.4761
6097 3 39 46.606 1.56 14.2527 7.74764
267 1 43.68 44.9882 0 -8.38468 34.1968
6098 5 42.12 46.5582 1.56 -5.36835 15.5245
268 2 46.8 44.948 0 9.35947 18.8422
6099 3 45.24 46.5148 1.56 12.2718 7.82889
269 1 49.92 44.9118 0 -3.70637 21.9543
6100 5 48.36 46.4758 1.56 -5.36944 16.9466
270 1 53.04 44.8792 0 -4.77149 21.886
6101 4 51.48 46.441 1.56 -17.4503 12.3202
6102 4 54.6 46.41 1.56 -18.8358 24.7016
289 2 0 48.75 0 -11.8454 49.2141
290 2 3.12 48.7208 0 -1.29806 32.8562
291 2 6.24 48.6882 0 -1.65122 28.5618
6123 3 7.8 50.2442 1.56 8.39332 8.38156
292 2 9.36 48.652 0 -2.94547 29.5776
6124 5 10.92 50.2052 1.56 -6.42089 16.0628
293 2 12.48 48.6118 0 -4.93808 34.193
6125 4 14.04 50.1618 1.56 -10.8463 8.029
294 2 15.6 48.5677 0 -4.20026 33.1353
6126 3 17.16 50.114 1.56 9.51073 13.9117
295 1 18.72 48.5198 0 -17.5318 44.0459
6127 4 20.28 50.062 1.56 -10.9884 5.28311
296 1 21.84 48.4686 0 -14.2886 40.203
6128 5 23.4 50.0067 1.56 -7.58451 13.1923
297 1 24.96 48.4149 0 -15.9446 35.9404
6129 4 26.52 49.9492 1.56 -10.9572 13.3432
280 1 28.08 48.36 0 -21.3147 45.0595
281 1 31.2 48.3051 0 -18.0691 45.5208
6112 3 29.64 49.8908 1.56 12.2893 10.0557
282 1 34.32 48.2514 0 -14.6797 43.2852
6113 5 32.76 49.8333 1.56 2.54969 12.1988
283 1 37.44 48.2002 0 -11.8119 43.3516
6114 3 35.88 49.778 1.56 13.6527 9.18218
284 2 40.56 48.1523 0 -4.33295 33.6081
6115 3 39 49.726 1.56 12.0969 7.03735
285 1 43.68 48.1082 0 -17.7992 39.658
6116 4 42.12 49.6782 1.56 -14.8976 13.0713
286 2 46.8 48.068 0 -4.48593 30.6179
6117 4 45.24 49.6348 1.56 -15.0785 10.3581
287 1 49.92 48.0318 0 -14.3019 37.9472
6118 5 48.36 49.5958 1.56 -7.25087 14.5296
288 2 53.04 47.9992 0 -3.28566 30.6849
6119 5 51.48 49.561 1.56 -8.53946 14.9691
6120 5 54.6 49.53 1.56 -17.16 24.7903
307 1 0 51.87 0 -26.7465 61.0028
6121 4 1.56 50.31 1.56 -14.2002 11.4609
308 1 3.12 51.8408 0 -13.1992 35.5148
6122 5 4.68 50.279 1.56 -11.7124 12.9421
309 2 6.24 51.8082 0 -2.27788 35.462
310 1 9.36 51.772 0 -13.9171 41.7916
311 2 12.48 51.7318 0 -0.787164 29.547
312 2 15.6 51.6877 0 3.81707 23.6947
313 1 18.72 51.6398 0 -10.6265 35.7501
6145 3 20.28 53.182 1.56 11.1837 5.53116
314 2 21.84 51.5886 0 -6.37745 33.7628
6146 3 23.4 53.1267 1.56 15.3144 5.95583
315 1 24.96 51.5349 0 -18.356 43.0619
6147 3 26.52 53.0692 1.56 14.9035 9.45985
298 2 28.08 51.48 0 -5.21426 37.1383
299 2 31.2 51.4251 0 1.55503 31.8442
6130 3 29.64 53.0108 1.56 15.7629 8.28178
300 2 34.32 51.3714 0 6.01143 21.6254
6131 3 32.76 52.9533 1.56 13.9976 6.80512
301 2 37.44 51.3202 0 6.78375 17.7668
6132 5 35.88 52.898 1.56 -3.79659 11.9284
302 1 40.56 51.2723 0 -6.045 25.6657
6133 5 39 52.846 1.56 -4.70266 19.1294
303 2 43.68 51.2282 0 -2.2317 29.3098
6134 4 42.12 52.7982 1.56 -16.354 14.7051
304 1 46.8 51.188 0 -14.8531 40.7728
6135 5 45.24 52.7548 1.56 -6.59202 15.1567
305 2 49.92 51.1518 0 5.66795 33.0961
6136 3 48.36 52.7158 1.56 12.5826 8.79239
306 2 53.04 51.1192 0 4.40654 27.4514
6137 3 51.48 52.681 1.56 11.2067 9.23807
6138 5 54.6 52.65 1.56 -17.9934 24.7124
1 2 0 54.99 0 -14.9283 52.5827
6139 4 1.56 53.43 1.56 -16.9838 8.94573
2 2 3.12 54.9608 0 4.3876 21.7544
6140 5 4.68 53.399 1.56 -8.14739 11.6229
3 2 6.24 54.9282 0 3.2087 24.8574
6141 4 7.8 53.3642 1.56 -13.7688 11.9303
4 2 9.36 54.892 0 -5.08792 32.3085
6142 5 10.92 53.3252 1.56 -12.2855 10.3012
5 1 12.48 54.8518 0 -15.6934 39.1533
6143 4 14.04 53.2818 1.56 -15.81 12.1218
6 1 15.6 54.8077 0 -19.0866 40.4284
6144 4 17.16 53.234 1.56 -14.0564 8.18531
7 2 18.72 54.7598 0 -5.75671 33.1903
8 1 21.84 54.7086 0 -6.1796 36.4887
9 1 24.96 54.6549 0 -3.1939 28.8853
316 2 28.08 54.6 0 5.40649 21.5422
317 1 31.2 54.5451 0 -9.24202 37.3892
6148 4 29.64 56.1308 1.56 -8.37026 9.0679
318 2 34.32 54.4914 0 -0.0316148 29.9588
6149 3 32.76 56.0733 1.56 10.8528 10.5248
319 1 37.44 54.4402 0 -8.5783 25.9013
6150 4 35.88 56.018 1.56 -13.7009 11.9469
320 2 40.56 54.3923 0 3.09364 19.276
6151 5 39 55.966 1.56 -7.71127 16.389
321 2 43.68 54.3482 0 -1.96198 30.5361
6152 4 42.12 55.9182 1.56 -15.6991 14.6181
322 2 46.8 54.308 0 -2.81863 32.4115
6153 5 45.24 55.8748 1.56 -12.363 12.4176
323 2 49.92 54.2718 0 5.01826 23.4509
6154 5 48.36 55.8358 1.56 -8.77879 10.385
324 1 53.04 54.2392 0 -8.22321 24.6783
6155 4 51.48 55.801 1.56 -12.4688 13.1796
6156 4 54.6 55.77 1.56 -26.9586 24.356
343 2 0 1.97918 3.12 0.93781 33.3249
6157 3 1.56 0.420995 4.68 10.3037 6.8438
344 1 3.12 1.95 3.12 6.38721 9.87051
6158 3 4.68 0.39 4.68 6.09579 5.6448
345 1 6.24 1.91694 3.12 4.24328 10.3693
6159 4 7.8 0.354591 4.68 -15.2605 11.5711
346 2 9.36 1.87954 3.12 13.4304 9.5761
6160 3 10.92 0.3142 4.68 4.19368 4.33928
347 1 12.48 1.83738 3.12 4.95934 5.43614
6161 4 14.04 0.268353 4.68 -12.3419 6.05536
348 2 15.6 1.79023 3.12 14.8998 10.385
6162 5 17.16 0.216813 4.68 -12.27 8.4016
349 1 18.72 1.73815 3.12 5.22646 9.17554
6163 4 20.28 0.15977 4.68 -17.3615 6.71166
350 1 21.84 1.68165 3.12 9.2696 10.2501
6164 4 23.4 0.0980194 4.68 -15.2424 6.12861
351 1 24.96 1.62175 3.12 9.11385 6.32793
6165 3 26.52 0.0330553 4.68 6.50739 4.64829
334 2 28.08 1.56 3.12 17.9198 7.38921
335 2 31.2 1.49825 3.12 17.237 9.46324
336 2 34.32 1.43835 3.12 15.7969 7.77376
337 1 37.44 1.38185 3.12 3.16221 6.2136
338 1 40.56 1.32977 3.12 1.9539 6.13488
6169 5 39 2.90319 4.68 -12.991 6.98806
339 1 43.68 1.28262 3.12 0.998501 2.90866
6170 5 42.12 2.85165 4.68 -15.2645 7.69973
340 1 46.8 1.24046 3.12 0.977164 6.12523
6171 3 45.24 2.8058 4.68 2.09297 6.61359
341 2 49.92 1.20306 3.12 11.4547 6.85406
6172 4 48.36 2.76541 4.68 -16.5267 5.88539
342 2 53.04 1.17 3.12 7.48673 6.65669
6173 5 51.48 2.73 4.68 -14.9062 8.28889
6174 4 54.6 2.69901 4.68 -25.3538 21.4356
361 2 0 5.09918 3.12 4.22857 22.6866
6175 5 1.56 3.54099 4.68 -8.18591 2.92205
362 2 3.12 5.07 3.12 12.2605 5.54752
6176 4 4.68 3.51 4.68 -17.4397 4.58291
363 2 6.24 5.03694 3.12 14.7659 4.93199
6177 5 7.8 3.47459 4.68 -12.7498 8.65171
364 2 9.36 4.99954 3.12 16.6416 8.46334
6178 5 10.92 3.4342 4.68 -9.23189 11.3298
365 1 12.48 4.95738 3.12 3.27338 6.8184
6179 3 14.04 3.38835 4.68 7.58996 6.70093
366 2 15.6 4.91023 3.12 12.4468 5.4534
6180 3 17.16 3.33681 4.68 9.68115 8.47916
367 2 18.72 4.85815 3.12 18.3785 7.12515
6181 3 20.28 3.27977 4.68 11.8769 4.91959
368 2 21.84 4.80165 3.12 21.9105 7.41064
6182 3 23.4 3.21802 4.68 12.4427 3.86049
369 1 24.96 4.74175 3.12 6.67558 8.05478
6183 5 26.52 3.15306 4.68 -5.10209 8.26461
352 2 28.08 4.68 3.12 17.149 1.65082
353 1 31.2 4.61825 3.12 10.7296 7.49139
6166 3 29.64 3.08694 4.68 12.0322 6.60528
354 2 34.32 4.55835 3.12 20.5509 3.8432
6167 3 32.76 3.02198 4.68 12.1826 5.85839
355 1 37.44 4.50185 3.12 9.70423 11.3879
6168 3 35.88 2.96023 4.68 9.32824 4.96148
356 2 40.56 4.44977 3.12 12.7645 6.57079
357 2 43.68 4.40262 3.12 9.4379 5.80481
358 1 46.8 4.36046 3.12 1.58287 4.38253
359 1 49.92 4.32306 3.12 4.668 9.93574
6190 3 48.36 5.88541 4.68 6.43528 4.58239
360 1 53.04 4.29 3.12 2.98275 6.03344
6191 4 51.48 5.85 4.68 -13.4204 4.30357
6192 5 54.6 5.81901 4.68 -17.3314 25.2745
379 1 0 8.21918 3.12 -6.63256 34.9583
6193 4 1.56 6.66099 4.68 -19.0486 7.14465
380 2 3.12 8.19 3.12 11.8967 5.89756
6194 4 4.68 6.63 4.68 -20.6443 8.05359
381 1 6.24 8.15694 3.12 2.70695 8.26352
6195 5 7.8 6.59459 4.68 -11.6995 7.35515
382 2 9.36 8.11954 3.12 13.4409 3.19012
6196 3 10.92 6.5542 4.68 6.15007 6.64211
383 2 12.48 8.07738 3.12 12.7531 5.45115
6197 5 14.04 6.50835 4.68 -9.13458 11.5314
384 1 15.6 8.03023 3.12 -0.901967 6.56273
6198 4 17.16 6.45681 4.68 -14.0933 3.46976
385 2 18.72 7.97815 3.12 11.5027 7.86582
6199 3 20.28 6.39977 4.68 11.878 3.47862
386 2 21.84 7.92165 3.12 15.3542 3.7987
6200 3 23.4 6.33802 4.68 8.97647 5.56707
387 1 24.96 7.86175 3.12 1.93117 10.9862
6201 4 26.52 6.27306 4.68 -16.7777 6.20215
370 1 28.08 7.8 3.12 2.42106 7.35195
371 1 31.2 7.73825 3.12 6.03411 9.30583
6184 5 29.64 6.20694 4.68 -6.60338 7.38301
372 1 34.32 7.67835 3.12 7.79707 8.36833
6185 3 32.76 6.14198 4.68 10.7758 4.04303
373 2 37.44 7.62185 3.12 16.5087 5.03886
6186 3 35.88 6.08023 4.68 10.2221 4.00569
374 2 40.56 7.56977 3.12 15.6767 9.09984
6187 4 39 6.02319 4.68 -16.4395 6.11735
375 2 43.68 7.52262 3.12 13.518 7.50045
6188 4 42.12 5.97165 4.68 -18.8588 7.14961
376 2 46.8 7.48046 3.12 14.299 10.7686
6189 4 45.24 5.9258 4.68 -17.2392 5.94892
377 2 49.92 7.44306 3.12 19.3359 9.49784
378 1 53.04 7.41 3.12 6.74299 10.7901
397 1 0 11.3392 3.12 -7.12137 31.2311
6211 4 1.56 9.78099 4.68 -14.9416 8.95419
398 2 3.12 11.31 3.12 12.4072 5.76479
6212 4 4.68 9.75 4.68 -22.2066 4.0662