./HEA/HEA_I.lmp (written by ASE) 

3456 	 atoms 
5  atom types
0.0      37.536000000000001  xlo xhi
0.0      37.536000000000001  ylo yhi
0.0      37.536000000000001  zlo zhi


Atoms 

     1   2                       0                       0                       0
     2   4      3.1280000000000001                       0                       0
     3   5      6.2560000000000002                       0                       0
     4   2      9.3840000000000003                       0                       0
     5   2                  12.512                       0                       0
     6   4      15.640000000000001                       0                       0
     7   2      18.768000000000001                       0                       0
     8   3      21.896000000000001                       0                       0
     9   3      25.024000000000001                       0                       0
    10   1      28.152000000000001                       0                       0
    11   4      31.280000000000001                       0                       0
    12   1      34.408000000000001                       0                       0
    13   4                       0      3.1280000000000001                       0
    14   2      3.1280000000000001      3.1280000000000001                       0
    15   3      6.2560000000000002      3.1280000000000001                       0
    16   4      9.3840000000000003      3.1280000000000001                       0
    17   4                  12.512      3.1280000000000001                       0
    18   3      15.640000000000001      3.1280000000000001                       0
    19   1      18.768000000000001      3.1280000000000001                       0
    20   5      21.896000000000001      3.1280000000000001                       0
    21   1      25.024000000000001      3.1280000000000001                       0
    22   5      28.152000000000001      3.1280000000000001                       0
    23   1      31.280000000000001      3.1280000000000001                       0
    24   1      34.408000000000001      3.1280000000000001                       0
    25   1                       0      6.2560000000000002                       0
    26   2      3.1280000000000001      6.2560000000000002                       0
    27   3      6.2560000000000002      6.2560000000000002                       0
    28   2      9.3840000000000003      6.2560000000000002                       0
    29   4                  12.512      6.2560000000000002                       0
    30   4      15.640000000000001      6.2560000000000002                       0
    31   2      18.768000000000001      6.2560000000000002                       0
    32   1      21.896000000000001      6.2560000000000002                       0
    33   5      25.024000000000001      6.2560000000000002                       0
    34   1      28.152000000000001      6.2560000000000002                       0
    35   2      31.280000000000001      6.2560000000000002                       0
    36   4      34.408000000000001      6.2560000000000002                       0
    37   2                       0      9.3840000000000003                       0
    38   3      3.1280000000000001      9.3840000000000003                       0
    39   4      6.2560000000000002      9.3840000000000003                       0
    40   4      9.3840000000000003      9.3840000000000003                       0
    41   5                  12.512      9.3840000000000003                       0
    42   1      15.640000000000001      9.3840000000000003                       0
    43   4      18.768000000000001      9.3840000000000003                       0
    44   1      21.896000000000001      9.3840000000000003                       0
    45   4      25.024000000000001      9.3840000000000003                       0
    46   2      28.152000000000001      9.3840000000000003                       0
    47   2      31.280000000000001      9.3840000000000003                       0
    48   2      34.408000000000001      9.3840000000000003                       0
    49   5                       0                  12.512                       0
    50   2      3.1280000000000001                  12.512                       0
    51   1      6.2560000000000002                  12.512                       0
    52   2      9.3840000000000003                  12.512                       0
    53   4                  12.512                  12.512                       0
    54   2      15.640000000000001                  12.512                       0
    55   3      18.768000000000001                  12.512                       0
    56   1      21.896000000000001                  12.512                       0
    57   1      25.024000000000001                  12.512                       0
    58   2      28.152000000000001                  12.512                       0
    59   2      31.280000000000001                  12.512                       0
    60   5      34.408000000000001                  12.512                       0
    61   1                       0      15.640000000000001                       0
    62   2      3.1280000000000001      15.640000000000001                       0
    63   4      6.2560000000000002      15.640000000000001                       0
    64   3      9.3840000000000003      15.640000000000001                       0
    65   2                  12.512      15.640000000000001                       0
    66   1      15.640000000000001      15.640000000000001                       0
    67   5      18.768000000000001      15.640000000000001                       0
    68   2      21.896000000000001      15.640000000000001                       0
    69   2      25.024000000000001      15.640000000000001                       0
    70   1      28.152000000000001      15.640000000000001                       0
    71   5      31.280000000000001      15.640000000000001                       0
    72   4      34.408000000000001      15.640000000000001                       0
    73   3                       0      18.768000000000001                       0
    74   5      3.1280000000000001      18.768000000000001                       0
    75   1      6.2560000000000002      18.768000000000001                       0
    76   3      9.3840000000000003      18.768000000000001                       0
    77   4                  12.512      18.768000000000001                       0
    78   3      15.640000000000001      18.768000000000001                       0
    79   5      18.768000000000001      18.768000000000001                       0
    80   5      21.896000000000001      18.768000000000001                       0
    81   2      25.024000000000001      18.768000000000001                       0
    82   2      28.152000000000001      18.768000000000001                       0
    83   2      31.280000000000001      18.768000000000001                       0
    84   2      34.408000000000001      18.768000000000001                       0
    85   1                       0      21.896000000000001                       0
    86   2      3.1280000000000001      21.896000000000001                       0
    87   2      6.2560000000000002      21.896000000000001                       0
    88   2      9.3840000000000003      21.896000000000001                       0
    89   4                  12.512      21.896000000000001                       0
    90   5      15.640000000000001      21.896000000000001                       0
    91   5      18.768000000000001      21.896000000000001                       0
    92   4      21.896000000000001      21.896000000000001                       0
    93   3      25.024000000000001      21.896000000000001                       0
    94   1      28.152000000000001      21.896000000000001                       0
    95   4      31.280000000000001      21.896000000000001                       0
    96   5      34.408000000000001      21.896000000000001                       0
    97   3                       0      25.024000000000001                       0
    98   1      3.1280000000000001      25.024000000000001                       0
    99   1      6.2560000000000002      25.024000000000001                       0
   100   2      9.3840000000000003      25.024000000000001                       0
   101   4                  12.512      25.024000000000001                       0
   102   5      15.640000000000001      25.024000000000001                       0
   103   2      18.768000000000001      25.024000000000001                       0
   104   2      21.896000000000001      25.024000000000001                       0
   105   2      25.024000000000001      25.024000000000001                       0
   106   1      28.152000000000001      25.024000000000001                       0
   107   3      31.280000000000001      25.024000000000001                       0
   108   4      34.408000000000001      25.024000000000001                       0
   109   2                       0      28.152000000000001                       0
   110   5      3.1280000000000001      28.152000000000001                       0
   111   4      6.2560000000000002      28.152000000000001                       0
   112   1      9.3840000000000003      28.152000000000001                       0
   113   1                  12.512      28.152000000000001                       0
   114   3      15.640000000000001      28.152000000000001                       0
   115   4      18.768000000000001      28.152000000000001                       0
   116   2      21.896000000000001      28.152000000000001                       0
   117   3      25.024000000000001      28.152000000000001                       0
   118   5      28.152000000000001      28.152000000000001                       0
   119   2      31.280000000000001      28.152000000000001                       0
   120   2      34.408000000000001      28.152000000000001                       0
   121   5                       0      31.280000000000001                       0
   122   4      3.1280000000000001      31.280000000000001                       0
   123   1      6.2560000000000002      31.280000000000001                       0
   124   2      9.3840000000000003      31.280000000000001                       0
   125   2                  12.512      31.280000000000001                       0
   126   2      15.640000000000001      31.280000000000001                       0
   127   3      18.768000000000001      31.280000000000001                       0
   128   1      21.896000000000001      31.280000000000001                       0
   129   2      25.024000000000001      31.280000000000001                       0
   130   1      28.152000000000001      31.280000000000001                       0
   131   3      31.280000000000001      31.280000000000001                       0
   132   1      34.408000000000001      31.280000000000001                       0
   133   5                       0      34.408000000000001                       0
   134   3      3.1280000000000001      34.408000000000001                       0
   135   4      6.2560000000000002      34.408000000000001                       0
   136   5      9.3840000000000003      34.408000000000001                       0
   137   4                  12.512      34.408000000000001                       0
   138   1      15.640000000000001      34.408000000000001                       0
   139   4      18.768000000000001      34.408000000000001                       0
   140   4      21.896000000000001      34.408000000000001                       0
   141   5      25.024000000000001      34.408000000000001                       0
   142   1      28.152000000000001      34.408000000000001                       0
   143   5      31.280000000000001      34.408000000000001                       0
   144   2      34.408000000000001      34.408000000000001                       0
   145   1                       0                       0      3.1280000000000001
   146   4      3.1280000000000001                       0      3.1280000000000001
   147   1      6.2560000000000002                       0      3.1280000000000001
   148   3      9.3840000000000003                       0      3.1280000000000001
   149   4                  12.512                       0      3.1280000000000001
   150   3      15.640000000000001                       0      3.1280000000000001
   151   5      18.768000000000001                       0      3.1280000000000001
   152   1      21.896000000000001                       0      3.1280000000000001
   153   5      25.024000000000001                       0      3.1280000000000001
   154   5      28.152000000000001                       0      3.1280000000000001
   155   4      31.280000000000001                       0      3.1280000000000001
   156   1      34.408000000000001                       0      3.1280000000000001
   157   3                       0      3.1280000000000001      3.1280000000000001
   158   3      3.1280000000000001      3.1280000000000001      3.1280000000000001
   159   3      6.2560000000000002      3.1280000000000001      3.1280000000000001
   160   4      9.3840000000000003      3.1280000000000001      3.1280000000000001
   161   3                  12.512      3.1280000000000001      3.1280000000000001
   162   5      15.640000000000001      3.1280000000000001      3.1280000000000001
   163   2      18.768000000000001      3.1280000000000001      3.1280000000000001
   164   1      21.896000000000001      3.1280000000000001      3.1280000000000001
   165   1      25.024000000000001      3.1280000000000001      3.1280000000000001
   166   2      28.152000000000001      3.1280000000000001      3.1280000000000001
   167   4      31.280000000000001      3.1280000000000001      3.1280000000000001
   168   3      34.408000000000001      3.1280000000000001      3.1280000000000001
   169   2                       0      6.2560000000000002      3.1280000000000001
   170   2      3.1280000000000001      6.2560000000000002      3.1280000000000001
   171   1      6.2560000000000002      6.2560000000000002      3.1280000000000001
   172   4      9.3840000000000003      6.2560000000000002      3.1280000000000001
   173   2                  12.512      6.2560000000000002      3.1280000000000001
   174   1      15.640000000000001      6.2560000000000002      3.1280000000000001
   175   4      18.768000000000001      6.2560000000000002      3.1280000000000001
   176   1      21.896000000000001      6.2560000000000002      3.1280000000000001
   177   2      25.024000000000001      6.2560000000000002      3.1280000000000001
   178   1      28.152000000000001      6.2560000000000002      3.1280000000000001
   179   2      31.280000000000001      6.2560000000000002      3.1280000000000001
   180   2      34.408000000000001      6.2560000000000002      3.1280000000000001
   181   1                       0      9.3840000000000003      3.1280000000000001
   182   4      3.1280000000000001      9.3840000000000003      3.1280000000000001
   183   5      6.2560000000000002      9.3840000000000003      3.1280000000000001
   184   3      9.3840000000000003      9.3840000000000003      3.1280000000000001
   185   1                  12.512      9.3840000000000003      3.1280000000000001
   186   3      15.640000000000001      9.3840000000000003      3.1280000000000001
   187   5      18.768000000000001      9.3840000000000003      3.1280000000000001
   188   2      21.896000000000001      9.3840000000000003      3.1280000000000001
   189   3      25.024000000000001      9.3840000000000003      3.1280000000000001
   190   5      28.152000000000001      9.3840000000000003      3.1280000000000001
   191   5      31.280000000000001      9.3840000000000003      3.1280000000000001
   192   5      34.408000000000001      9.3840000000000003      3.1280000000000001
   193   4                       0                  12.512      3.1280000000000001
   194   2      3.1280000000000001                  12.512      3.1280000000000001
   195   2      6.2560000000000002                  12.512      3.1280000000000001
   196   1      9.3840000000000003                  12.512      3.1280000000000001
   197   5                  12.512                  12.512      3.1280000000000001
   198   4      15.640000000000001                  12.512      3.1280000000000001
   199   2      18.768000000000001                  12.512      3.1280000000000001
   200   2      21.896000000000001                  12.512      3.1280000000000001
   201   2      25.024000000000001                  12.512      3.1280000000000001
   202   4      28.152000000000001                  12.512      3.1280000000000001
   203   5      31.280000000000001                  12.512      3.1280000000000001
   204   2      34.408000000000001                  12.512      3.1280000000000001
   205   1                       0      15.640000000000001      3.1280000000000001
   206   1      3.1280000000000001      15.640000000000001      3.1280000000000001
   207   3      6.2560000000000002      15.640000000000001      3.1280000000000001
   208   1      9.3840000000000003      15.640000000000001      3.1280000000000001
   209   2                  12.512      15.640000000000001      3.1280000000000001
   210   4      15.640000000000001      15.640000000000001      3.1280000000000001
   211   4      18.768000000000001      15.640000000000001      3.1280000000000001
   212   3      21.896000000000001      15.640000000000001      3.1280000000000001
   213   2      25.024000000000001      15.640000000000001      3.1280000000000001
   214   3      28.152000000000001      15.640000000000001      3.1280000000000001
   215   5      31.280000000000001      15.640000000000001      3.1280000000000001
   216   4      34.408000000000001      15.640000000000001      3.1280000000000001
   217   4                       0      18.768000000000001      3.1280000000000001
   218   4      3.1280000000000001      18.768000000000001      3.1280000000000001
   219   2      6.2560000000000002      18.768000000000001      3.1280000000000001
   220   3      9.3840000000000003      18.768000000000001      3.1280000000000001
   221   2                  12.512      18.768000000000001      3.1280000000000001
   222   2      15.640000000000001      18.768000000000001      3.1280000000000001
   223   1      18.768000000000001      18.768000000000001      3.1280000000000001
   224   2      21.896000000000001      18.768000000000001      3.1280000000000001
   225   1      25.024000000000001      18.768000000000001      3.1280000000000001
   226   3      28.152000000000001      18.768000000000001      3.1280000000000001
   227   1      31.280000000000001      18.768000000000001      3.1280000000000001
   228   2      34.408000000000001      18.768000000000001      3.1280000000000001
   229   2                       0      21.896000000000001      3.1280000000000001
   230   3      3.1280000000000001      21.896000000000001      3.1280000000000001
   231   2      6.2560000000000002      21.896000000000001      3.1280000000000001
   232   4      9.3840000000000003      21.896000000000001      3.1280000000000001
   233   2                  12.512      21.896000000000001      3.1280000000000001
   234   5      15.640000000000001      21.896000000000001      3.1280000000000001
   235   4      18.768000000000001      21.896000000000001      3.1280000000000001
   236   1      21.896000000000001      21.896000000000001      3.1280000000000001
   237   2      25.024000000000001      21.896000000000001      3.1280000000000001
   238   3      28.152000000000001      21.896000000000001      3.1280000000000001
   239   2      31.280000000000001      21.896000000000001      3.1280000000000001
   240   5      34.408000000000001      21.896000000000001      3.1280000000000001
   241   5                       0      25.024000000000001      3.1280000000000001
   242   2      3.1280000000000001      25.024000000000001      3.1280000000000001
   243   1      6.2560000000000002      25.024000000000001      3.1280000000000001
   244   4      9.3840000000000003      25.024000000000001      3.1280000000000001
   245   1                  12.512      25.024000000000001      3.1280000000000001
   246   2      15.640000000000001      25.024000000000001      3.1280000000000001
   247   3      18.768000000000001      25.024000000000001      3.1280000000000001
   248   4      21.896000000000001      25.024000000000001      3.1280000000000001
   249   5      25.024000000000001      25.024000000000001      3.1280000000000001
   250   4      28.152000000000001      25.024000000000001      3.1280000000000001
   251   1      31.280000000000001      25.024000000000001      3.1280000000000001
   252   5      34.408000000000001      25.024000000000001      3.1280000000000001
   253   1                       0      28.152000000000001      3.1280000000000001
   254   1      3.1280000000000001      28.152000000000001      3.1280000000000001
   255   5      6.2560000000000002      28.152000000000001      3.1280000000000001
   256   1      9.3840000000000003      28.152000000000001      3.1280000000000001
   257   2                  12.512      28.152000000000001      3.1280000000000001
   258   3      15.640000000000001      28.152000000000001      3.1280000000000001
   259   2      18.768000000000001      28.152000000000001      3.1280000000000001
   260   1      21.896000000000001      28.152000000000001      3.1280000000000001
   261   3      25.024000000000001      28.152000000000001      3.1280000000000001
   262   2      28.152000000000001      28.152000000000001      3.1280000000000001
   263   2      31.280000000000001      28.152000000000001      3.1280000000000001
   264   5      34.408000000000001      28.152000000000001      3.1280000000000001
   265   3                       0      31.280000000000001      3.1280000000000001
   266   5      3.1280000000000001      31.280000000000001      3.1280000000000001
   267   5      6.2560000000000002      31.280000000000001      3.1280000000000001
   268   4      9.3840000000000003      31.280000000000001      3.1280000000000001
   269   4                  12.512      31.280000000000001      3.1280000000000001
   270   1      15.640000000000001      31.280000000000001      3.1280000000000001
   271   3      18.768000000000001      31.280000000000001      3.1280000000000001
   272   3      21.896000000000001      31.280000000000001      3.1280000000000001
   273   4      25.024000000000001      31.280000000000001      3.1280000000000001
   274   3      28.152000000000001      31.280000000000001      3.1280000000000001
   275   2      31.280000000000001      31.280000000000001      3.1280000000000001
   276   2      34.408000000000001      31.280000000000001      3.1280000000000001
   277   4                       0      34.408000000000001      3.1280000000000001
   278   2      3.1280000000000001      34.408000000000001      3.1280000000000001
   279   1      6.2560000000000002      34.408000000000001      3.1280000000000001
   280   2      9.3840000000000003      34.408000000000001      3.1280000000000001
   281   2                  12.512      34.408000000000001      3.1280000000000001
   282   4      15.640000000000001      34.408000000000001      3.1280000000000001
   283   4      18.768000000000001      34.408000000000001      3.1280000000000001
   284   3      21.896000000000001      34.408000000000001      3.1280000000000001
   285   3      25.024000000000001      34.408000000000001      3.1280000000000001
   286   1      28.152000000000001      34.408000000000001      3.1280000000000001
   287   2      31.280000000000001      34.408000000000001      3.1280000000000001
   288   2      34.408000000000001      34.408000000000001      3.1280000000000001
   289   1                       0                       0      6.2560000000000002
   290   1      3.1280000000000001                       0      6.2560000000000002
   291   4      6.2560000000000002                       0      6.2560000000000002
   292   2      9.3840000000000003                       0      6.2560000000000002
   293   4                  12.512                       0      6.2560000000000002
   294   4      15.640000000000001                       0      6.2560000000000002
   295   4      18.768000000000001                       0      6.2560000000000002
   296   3      21.896000000000001                       0      6.2560000000000002
   297   1      25.024000000000001                       0      6.2560000000000002
   298   5      28.152000000000001                       0      6.2560000000000002
   299   2      31.280000000000001                       0      6.2560000000000002
   300   4      34.408000000000001                       0      6.2560000000000002
   301   1                       0      3.1280000000000001      6.2560000000000002
   302   5      3.1280000000000001      3.1280000000000001      6.2560000000000002
   303   2      6.2560000000000002      3.1280000000000001      6.2560000000000002
   304   1      9.3840000000000003      3.1280000000000001      6.2560000000000002
   305   1                  12.512      3.1280000000000001      6.2560000000000002
   306   2      15.640000000000001      3.1280000000000001      6.2560000000000002
   307   4      18.768000000000001      3.1280000000000001      6.2560000000000002
   308   3      21.896000000000001      3.1280000000000001      6.2560000000000002
   309   4      25.024000000000001      3.1280000000000001      6.2560000000000002
   310   5      28.152000000000001      3.1280000000000001      6.2560000000000002
   311   3      31.280000000000001      3.1280000000000001      6.2560000000000002
   312   2      34.408000000000001      3.1280000000000001      6.2560000000000002
   313   4                       0      6.2560000000000002      6.2560000000000002
   314   1      3.1280000000000001      6.2560000000000002      6.2560000000000002
   315   1      6.2560000000000002      6.2560000000000002      6.2560000000000002
   316   1      9.3840000000000003      6.2560000000000002      6.2560000000000002
   317   4                  12.512      6.2560000000000002      6.2560000000000002
   318   2      15.640000000000001      6.2560000000000002      6.2560000000000002
   319   1      18.768000000000001      6.2560000000000002      6.2560000000000002
   320   4      21.896000000000001      6.2560000000000002      6.2560000000000002
   321   5      25.024000000000001      6.2560000000000002      6.2560000000000002
   322   3      28.152000000000001      6.2560000000000002      6.2560000000000002
   323   3      31.280000000000001      6.2560000000000002      6.2560000000000002
   324   2      34.408000000000001      6.2560000000000002      6.2560000000000002
   325   2                       0      9.3840000000000003      6.2560000000000002
   326   2      3.1280000000000001      9.3840000000000003      6.2560000000000002
   327   2      6.2560000000000002      9.3840000000000003      6.2560000000000002
   328   1      9.3840000000000003      9.3840000000000003      6.2560000000000002
   329   2                  12.512      9.3840000000000003      6.2560000000000002
   330   1      15.640000000000001      9.3840000000000003      6.2560000000000002
   331   4      18.768000000000001      9.3840000000000003      6.2560000000000002
   332   1      21.896000000000001      9.3840000000000003      6.2560000000000002
   333   3      25.024000000000001      9.3840000000000003      6.2560000000000002
   334   3      28.152000000000001      9.3840000000000003      6.2560000000000002
   335   1      31.280000000000001      9.3840000000000003      6.2560000000000002
   336   1      34.408000000000001      9.3840000000000003      6.2560000000000002
   337   1                       0                  12.512      6.2560000000000002
   338   1      3.1280000000000001                  12.512      6.2560000000000002
   339   3      6.2560000000000002                  12.512      6.2560000000000002
   340   2      9.3840000000000003                  12.512      6.2560000000000002
   341   4                  12.512                  12.512      6.2560000000000002
   342   2      15.640000000000001                  12.512      6.2560000000000002
   343   1      18.768000000000001                  12.512      6.2560000000000002
   344   3      21.896000000000001                  12.512      6.2560000000000002
   345   2      25.024000000000001                  12.512      6.2560000000000002
   346   2      28.152000000000001                  12.512      6.2560000000000002
   347   5      31.280000000000001                  12.512      6.2560000000000002
   348   1      34.408000000000001                  12.512      6.2560000000000002
   349   2                       0      15.640000000000001      6.2560000000000002
   350   2      3.1280000000000001      15.640000000000001      6.2560000000000002
   351   1      6.2560000000000002      15.640000000000001      6.2560000000000002
   352   2      9.3840000000000003      15.640000000000001      6.2560000000000002
   353   1                  12.512      15.640000000000001      6.2560000000000002
   354   4      15.640000000000001      15.640000000000001      6.2560000000000002
   355   2      18.768000000000001      15.640000000000001      6.2560000000000002
   356   3      21.896000000000001      15.640000000000001      6.2560000000000002
   357   3      25.024000000000001      15.640000000000001      6.2560000000000002
   358   5      28.152000000000001      15.640000000000001      6.2560000000000002
   359   2      31.280000000000001      15.640000000000001      6.2560000000000002