./HEA/HEA_I.lmp (written by ASE) 

3456 	 atoms 
5  atom types
0.0      37.536000000000001  xlo xhi
0.0      37.536000000000001  ylo yhi
0.0      37.536000000000001  zlo zhi


Atoms 

     1   3                       0                       0                       0
     2   5      3.1280000000000001                       0                       0
     3   4      6.2560000000000002                       0                       0
     4   3      9.3840000000000003                       0                       0
     5   3                  12.512                       0                       0
     6   5      15.640000000000001                       0                       0
     7   5      18.768000000000001                       0                       0
     8   1      21.896000000000001                       0                       0
     9   2      25.024000000000001                       0                       0
    10   1      28.152000000000001                       0                       0
    11   5      31.280000000000001                       0                       0
    12   1      34.408000000000001                       0                       0
    13   3                       0      3.1280000000000001                       0
    14   3      3.1280000000000001      3.1280000000000001                       0
    15   3      6.2560000000000002      3.1280000000000001                       0
    16   1      9.3840000000000003      3.1280000000000001                       0
    17   4                  12.512      3.1280000000000001                       0
    18   5      15.640000000000001      3.1280000000000001                       0
    19   3      18.768000000000001      3.1280000000000001                       0
    20   2      21.896000000000001      3.1280000000000001                       0
    21   4      25.024000000000001      3.1280000000000001                       0
    22   3      28.152000000000001      3.1280000000000001                       0
    23   4      31.280000000000001      3.1280000000000001                       0
    24   5      34.408000000000001      3.1280000000000001                       0
    25   4                       0      6.2560000000000002                       0
    26   4      3.1280000000000001      6.2560000000000002                       0
    27   4      6.2560000000000002      6.2560000000000002                       0
    28   4      9.3840000000000003      6.2560000000000002                       0
    29   3                  12.512      6.2560000000000002                       0
    30   1      15.640000000000001      6.2560000000000002                       0
    31   2      18.768000000000001      6.2560000000000002                       0
    32   5      21.896000000000001      6.2560000000000002                       0
    33   1      25.024000000000001      6.2560000000000002                       0
    34   4      28.152000000000001      6.2560000000000002                       0
    35   1      31.280000000000001      6.2560000000000002                       0
    36   1      34.408000000000001      6.2560000000000002                       0
    37   1                       0      9.3840000000000003                       0
    38   4      3.1280000000000001      9.3840000000000003                       0
    39   4      6.2560000000000002      9.3840000000000003                       0
    40   3      9.3840000000000003      9.3840000000000003                       0
    41   3                  12.512      9.3840000000000003                       0
    42   1      15.640000000000001      9.3840000000000003                       0
    43   2      18.768000000000001      9.3840000000000003                       0
    44   4      21.896000000000001      9.3840000000000003                       0
    45   2      25.024000000000001      9.3840000000000003                       0
    46   1      28.152000000000001      9.3840000000000003                       0
    47   4      31.280000000000001      9.3840000000000003                       0
    48   3      34.408000000000001      9.3840000000000003                       0
    49   1                       0                  12.512                       0
    50   2      3.1280000000000001                  12.512                       0
    51   1      6.2560000000000002                  12.512                       0
    52   1      9.3840000000000003                  12.512                       0
    53   4                  12.512                  12.512                       0
    54   1      15.640000000000001                  12.512                       0
    55   1      18.768000000000001                  12.512                       0
    56   2      21.896000000000001                  12.512                       0
    57   5      25.024000000000001                  12.512                       0
    58   1      28.152000000000001                  12.512                       0
    59   1      31.280000000000001                  12.512                       0
    60   1      34.408000000000001                  12.512                       0
    61   2                       0      15.640000000000001                       0
    62   1      3.1280000000000001      15.640000000000001                       0
    63   3      6.2560000000000002      15.640000000000001                       0
    64   5      9.3840000000000003      15.640000000000001                       0
    65   2                  12.512      15.640000000000001                       0
    66   1      15.640000000000001      15.640000000000001                       0
    67   3      18.768000000000001      15.640000000000001                       0
    68   3      21.896000000000001      15.640000000000001                       0
    69   1      25.024000000000001      15.640000000000001                       0
    70   3      28.152000000000001      15.640000000000001                       0
    71   5      31.280000000000001      15.640000000000001                       0
    72   5      34.408000000000001      15.640000000000001                       0
    73   5                       0      18.768000000000001                       0
    74   3      3.1280000000000001      18.768000000000001                       0
    75   5      6.2560000000000002      18.768000000000001                       0
    76   1      9.3840000000000003      18.768000000000001                       0
    77   2                  12.512      18.768000000000001                       0
    78   3      15.640000000000001      18.768000000000001                       0
    79   1      18.768000000000001      18.768000000000001                       0
    80   3      21.896000000000001      18.768000000000001                       0
    81   2      25.024000000000001      18.768000000000001                       0
    82   5      28.152000000000001      18.768000000000001                       0
    83   3      31.280000000000001      18.768000000000001                       0
    84   1      34.408000000000001      18.768000000000001                       0
    85   4                       0      21.896000000000001                       0
    86   5      3.1280000000000001      21.896000000000001                       0
    87   3      6.2560000000000002      21.896000000000001                       0
    88   4      9.3840000000000003      21.896000000000001                       0
    89   4                  12.512      21.896000000000001                       0
    90   1      15.640000000000001      21.896000000000001                       0
    91   2      18.768000000000001      21.896000000000001                       0
    92   4      21.896000000000001      21.896000000000001                       0
    93   4      25.024000000000001      21.896000000000001                       0
    94   3      28.152000000000001      21.896000000000001                       0
    95   5      31.280000000000001      21.896000000000001                       0
    96   4      34.408000000000001      21.896000000000001                       0
    97   5                       0      25.024000000000001                       0
    98   4      3.1280000000000001      25.024000000000001                       0
    99   5      6.2560000000000002      25.024000000000001                       0
   100   3      9.3840000000000003      25.024000000000001                       0
   101   2                  12.512      25.024000000000001                       0
   102   5      15.640000000000001      25.024000000000001                       0
   103   2      18.768000000000001      25.024000000000001                       0
   104   2      21.896000000000001      25.024000000000001                       0
   105   5      25.024000000000001      25.024000000000001                       0
   106   1      28.152000000000001      25.024000000000001                       0
   107   5      31.280000000000001      25.024000000000001                       0
   108   4      34.408000000000001      25.024000000000001                       0
   109   3                       0      28.152000000000001                       0
   110   4      3.1280000000000001      28.152000000000001                       0
   111   4      6.2560000000000002      28.152000000000001                       0
   112   1      9.3840000000000003      28.152000000000001                       0
   113   4                  12.512      28.152000000000001                       0
   114   5      15.640000000000001      28.152000000000001                       0
   115   1      18.768000000000001      28.152000000000001                       0
   116   3      21.896000000000001      28.152000000000001                       0
   117   2      25.024000000000001      28.152000000000001                       0
   118   1      28.152000000000001      28.152000000000001                       0
   119   3      31.280000000000001      28.152000000000001                       0
   120   3      34.408000000000001      28.152000000000001                       0
   121   4                       0      31.280000000000001                       0
   122   3      3.1280000000000001      31.280000000000001                       0
   123   3      6.2560000000000002      31.280000000000001                       0
   124   3      9.3840000000000003      31.280000000000001                       0
   125   1                  12.512      31.280000000000001                       0
   126   4      15.640000000000001      31.280000000000001                       0
   127   3      18.768000000000001      31.280000000000001                       0
   128   5      21.896000000000001      31.280000000000001                       0
   129   1      25.024000000000001      31.280000000000001                       0
   130   3      28.152000000000001      31.280000000000001                       0
   131   3      31.280000000000001      31.280000000000001                       0
   132   2      34.408000000000001      31.280000000000001                       0
   133   3                       0      34.408000000000001                       0
   134   4      3.1280000000000001      34.408000000000001                       0
   135   2      6.2560000000000002      34.408000000000001                       0
   136   5      9.3840000000000003      34.408000000000001                       0
   137   3                  12.512      34.408000000000001                       0
   138   3      15.640000000000001      34.408000000000001                       0
   139   5      18.768000000000001      34.408000000000001                       0
   140   2      21.896000000000001      34.408000000000001                       0
   141   1      25.024000000000001      34.408000000000001                       0
   142   5      28.152000000000001      34.408000000000001                       0
   143   4      31.280000000000001      34.408000000000001                       0
   144   1      34.408000000000001      34.408000000000001                       0
   145   3                       0                       0      3.1280000000000001
   146   3      3.1280000000000001                       0      3.1280000000000001
   147   5      6.2560000000000002                       0      3.1280000000000001
   148   3      9.3840000000000003                       0      3.1280000000000001
   149   1                  12.512                       0      3.1280000000000001
   150   4      15.640000000000001                       0      3.1280000000000001
   151   3      18.768000000000001                       0      3.1280000000000001
   152   2      21.896000000000001                       0      3.1280000000000001
   153   5      25.024000000000001                       0      3.1280000000000001
   154   4      28.152000000000001                       0      3.1280000000000001
   155   2      31.280000000000001                       0      3.1280000000000001
   156   2      34.408000000000001                       0      3.1280000000000001
   157   1                       0      3.1280000000000001      3.1280000000000001
   158   3      3.1280000000000001      3.1280000000000001      3.1280000000000001
   159   5      6.2560000000000002      3.1280000000000001      3.1280000000000001
   160   4      9.3840000000000003      3.1280000000000001      3.1280000000000001
   161   4                  12.512      3.1280000000000001      3.1280000000000001
   162   3      15.640000000000001      3.1280000000000001      3.1280000000000001
   163   1      18.768000000000001      3.1280000000000001      3.1280000000000001
   164   4      21.896000000000001      3.1280000000000001      3.1280000000000001
   165   4      25.024000000000001      3.1280000000000001      3.1280000000000001
   166   3      28.152000000000001      3.1280000000000001      3.1280000000000001
   167   1      31.280000000000001      3.1280000000000001      3.1280000000000001
   168   2      34.408000000000001      3.1280000000000001      3.1280000000000001
   169   5                       0      6.2560000000000002      3.1280000000000001
   170   1      3.1280000000000001      6.2560000000000002      3.1280000000000001
   171   1      6.2560000000000002      6.2560000000000002      3.1280000000000001
   172   4      9.3840000000000003      6.2560000000000002      3.1280000000000001
   173   1                  12.512      6.2560000000000002      3.1280000000000001
   174   4      15.640000000000001      6.2560000000000002      3.1280000000000001
   175   5      18.768000000000001      6.2560000000000002      3.1280000000000001
   176   1      21.896000000000001      6.2560000000000002      3.1280000000000001
   177   1      25.024000000000001      6.2560000000000002      3.1280000000000001
   178   1      28.152000000000001      6.2560000000000002      3.1280000000000001
   179   2      31.280000000000001      6.2560000000000002      3.1280000000000001
   180   3      34.408000000000001      6.2560000000000002      3.1280000000000001
   181   1                       0      9.3840000000000003      3.1280000000000001
   182   4      3.1280000000000001      9.3840000000000003      3.1280000000000001
   183   4      6.2560000000000002      9.3840000000000003      3.1280000000000001
   184   4      9.3840000000000003      9.3840000000000003      3.1280000000000001
   185   1                  12.512      9.3840000000000003      3.1280000000000001
   186   4      15.640000000000001      9.3840000000000003      3.1280000000000001
   187   4      18.768000000000001      9.3840000000000003      3.1280000000000001
   188   1      21.896000000000001      9.3840000000000003      3.1280000000000001
   189   4      25.024000000000001      9.3840000000000003      3.1280000000000001
   190   2      28.152000000000001      9.3840000000000003      3.1280000000000001
   191   4      31.280000000000001      9.3840000000000003      3.1280000000000001
   192   3      34.408000000000001      9.3840000000000003      3.1280000000000001
   193   5                       0                  12.512      3.1280000000000001
   194   5      3.1280000000000001                  12.512      3.1280000000000001
   195   4      6.2560000000000002                  12.512      3.1280000000000001
   196   1      9.3840000000000003                  12.512      3.1280000000000001
   197   5                  12.512                  12.512      3.1280000000000001
   198   3      15.640000000000001                  12.512      3.1280000000000001
   199   1      18.768000000000001                  12.512      3.1280000000000001
   200   4      21.896000000000001                  12.512      3.1280000000000001
   201   2      25.024000000000001                  12.512      3.1280000000000001
   202   5      28.152000000000001                  12.512      3.1280000000000001
   203   1      31.280000000000001                  12.512      3.1280000000000001
   204   1      34.408000000000001                  12.512      3.1280000000000001
   205   5                       0      15.640000000000001      3.1280000000000001
   206   3      3.1280000000000001      15.640000000000001      3.1280000000000001
   207   1      6.2560000000000002      15.640000000000001      3.1280000000000001
   208   4      9.3840000000000003      15.640000000000001      3.1280000000000001
   209   5                  12.512      15.640000000000001      3.1280000000000001
   210   1      15.640000000000001      15.640000000000001      3.1280000000000001
   211   1      18.768000000000001      15.640000000000001      3.1280000000000001
   212   3      21.896000000000001      15.640000000000001      3.1280000000000001
   213   5      25.024000000000001      15.640000000000001      3.1280000000000001
   214   4      28.152000000000001      15.640000000000001      3.1280000000000001
   215   2      31.280000000000001      15.640000000000001      3.1280000000000001
   216   4      34.408000000000001      15.640000000000001      3.1280000000000001
   217   3                       0      18.768000000000001      3.1280000000000001
   218   4      3.1280000000000001      18.768000000000001      3.1280000000000001
   219   1      6.2560000000000002      18.768000000000001      3.1280000000000001
   220   3      9.3840000000000003      18.768000000000001      3.1280000000000001
   221   5                  12.512      18.768000000000001      3.1280000000000001
   222   2      15.640000000000001      18.768000000000001      3.1280000000000001
   223   1      18.768000000000001      18.768000000000001      3.1280000000000001
   224   3      21.896000000000001      18.768000000000001      3.1280000000000001
   225   4      25.024000000000001      18.768000000000001      3.1280000000000001
   226   5      28.152000000000001      18.768000000000001      3.1280000000000001
   227   1      31.280000000000001      18.768000000000001      3.1280000000000001
   228   1      34.408000000000001      18.768000000000001      3.1280000000000001
   229   1                       0      21.896000000000001      3.1280000000000001
   230   5      3.1280000000000001      21.896000000000001      3.1280000000000001
   231   1      6.2560000000000002      21.896000000000001      3.1280000000000001
   232   1      9.3840000000000003      21.896000000000001      3.1280000000000001
   233   5                  12.512      21.896000000000001      3.1280000000000001
   234   5      15.640000000000001      21.896000000000001      3.1280000000000001
   235   3      18.768000000000001      21.896000000000001      3.1280000000000001
   236   2      21.896000000000001      21.896000000000001      3.1280000000000001
   237   2      25.024000000000001      21.896000000000001      3.1280000000000001
   238   2      28.152000000000001      21.896000000000001      3.1280000000000001
   239   1      31.280000000000001      21.896000000000001      3.1280000000000001
   240   2      34.408000000000001      21.896000000000001      3.1280000000000001
   241   3                       0      25.024000000000001      3.1280000000000001
   242   4      3.1280000000000001      25.024000000000001      3.1280000000000001
   243   5      6.2560000000000002      25.024000000000001      3.1280000000000001
   244   1      9.3840000000000003      25.024000000000001      3.1280000000000001
   245   3                  12.512      25.024000000000001      3.1280000000000001
   246   3      15.640000000000001      25.024000000000001      3.1280000000000001
   247   1      18.768000000000001      25.024000000000001      3.1280000000000001
   248   2      21.896000000000001      25.024000000000001      3.1280000000000001
   249   2      25.024000000000001      25.024000000000001      3.1280000000000001
   250   2      28.152000000000001      25.024000000000001      3.1280000000000001
   251   3      31.280000000000001      25.024000000000001      3.1280000000000001
   252   2      34.408000000000001      25.024000000000001      3.1280000000000001
   253   3                       0      28.152000000000001      3.1280000000000001
   254   3      3.1280000000000001      28.152000000000001      3.1280000000000001
   255   1      6.2560000000000002      28.152000000000001      3.1280000000000001
   256   5      9.3840000000000003      28.152000000000001      3.1280000000000001
   257   5                  12.512      28.152000000000001      3.1280000000000001
   258   1      15.640000000000001      28.152000000000001      3.1280000000000001
   259   4      18.768000000000001      28.152000000000001      3.1280000000000001
   260   2      21.896000000000001      28.152000000000001      3.1280000000000001
   261   4      25.024000000000001      28.152000000000001      3.1280000000000001
   262   1      28.152000000000001      28.152000000000001      3.1280000000000001
   263   1      31.280000000000001      28.152000000000001      3.1280000000000001
   264   3      34.408000000000001      28.152000000000001      3.1280000000000001
   265   1                       0      31.280000000000001      3.1280000000000001
   266   3      3.1280000000000001      31.280000000000001      3.1280000000000001
   267   4      6.2560000000000002      31.280000000000001      3.1280000000000001
   268   3      9.3840000000000003      31.280000000000001      3.1280000000000001
   269   4                  12.512      31.280000000000001      3.1280000000000001
   270   1      15.640000000000001      31.280000000000001      3.1280000000000001
   271   2      18.768000000000001      31.280000000000001      3.1280000000000001
   272   1      21.896000000000001      31.280000000000001      3.1280000000000001
   273   2      25.024000000000001      31.280000000000001      3.1280000000000001
   274   5      28.152000000000001      31.280000000000001      3.1280000000000001
   275   1      31.280000000000001      31.280000000000001      3.1280000000000001
   276   4      34.408000000000001      31.280000000000001      3.1280000000000001
   277   1                       0      34.408000000000001      3.1280000000000001
   278   3      3.1280000000000001      34.408000000000001      3.1280000000000001
   279   1      6.2560000000000002      34.408000000000001      3.1280000000000001
   280   3      9.3840000000000003      34.408000000000001      3.1280000000000001
   281   3                  12.512      34.408000000000001      3.1280000000000001
   282   4      15.640000000000001      34.408000000000001      3.1280000000000001
   283   3      18.768000000000001      34.408000000000001      3.1280000000000001
   284   4      21.896000000000001      34.408000000000001      3.1280000000000001
   285   3      25.024000000000001      34.408000000000001      3.1280000000000001
   286   5      28.152000000000001      34.408000000000001      3.1280000000000001
   287   5      31.280000000000001      34.408000000000001      3.1280000000000001
   288   3      34.408000000000001      34.408000000000001      3.1280000000000001
   289   4                       0                       0      6.2560000000000002
   290   2      3.1280000000000001                       0      6.2560000000000002
   291   1      6.2560000000000002                       0      6.2560000000000002
   292   3      9.3840000000000003                       0      6.2560000000000002
   293   3                  12.512                       0      6.2560000000000002
   294   5      15.640000000000001                       0      6.2560000000000002
   295   3      18.768000000000001                       0      6.2560000000000002
   296   4      21.896000000000001                       0      6.2560000000000002
   297   3      25.024000000000001                       0      6.2560000000000002
   298   4      28.152000000000001                       0      6.2560000000000002
   299   4      31.280000000000001                       0      6.2560000000000002
   300   3      34.408000000000001                       0      6.2560000000000002
   301   3                       0      3.1280000000000001      6.2560000000000002
   302   3      3.1280000000000001      3.1280000000000001      6.2560000000000002
   303   1      6.2560000000000002      3.1280000000000001      6.2560000000000002
   304   1      9.3840000000000003      3.1280000000000001      6.2560000000000002
   305   1                  12.512      3.1280000000000001      6.2560000000000002
   306   3      15.640000000000001      3.1280000000000001      6.2560000000000002
   307   3      18.768000000000001      3.1280000000000001      6.2560000000000002
   308   4      21.896000000000001      3.1280000000000001      6.2560000000000002
   309   3      25.024000000000001      3.1280000000000001      6.2560000000000002
   310   3      28.152000000000001      3.1280000000000001      6.2560000000000002
   311   1      31.280000000000001      3.1280000000000001      6.2560000000000002
   312   2      34.408000000000001      3.1280000000000001      6.2560000000000002
   313   5                       0      6.2560000000000002      6.2560000000000002
   314   2      3.1280000000000001      6.2560000000000002      6.2560000000000002
   315   4      6.2560000000000002      6.2560000000000002      6.2560000000000002
   316   5      9.3840000000000003      6.2560000000000002      6.2560000000000002
   317   1                  12.512      6.2560000000000002      6.2560000000000002
   318   2      15.640000000000001      6.2560000000000002      6.2560000000000002
   319   3      18.768000000000001      6.2560000000000002      6.2560000000000002
   320   4      21.896000000000001      6.2560000000000002      6.2560000000000002
   321   1      25.024000000000001      6.2560000000000002      6.2560000000000002
   322   3      28.152000000000001      6.2560000000000002      6.2560000000000002
   323   3      31.280000000000001      6.2560000000000002      6.2560000000000002
   324   5      34.408000000000001      6.2560000000000002      6.2560000000000002
   325   4                       0      9.3840000000000003      6.2560000000000002
   326   3      3.1280000000000001      9.3840000000000003      6.2560000000000002
   327   4      6.2560000000000002      9.3840000000000003      6.2560000000000002
   328   3      9.3840000000000003      9.3840000000000003      6.2560000000000002
   329   3                  12.512      9.3840000000000003      6.2560000000000002
   330   1      15.640000000000001      9.3840000000000003      6.2560000000000002
   331   2      18.768000000000001      9.3840000000000003      6.2560000000000002
   332   1      21.896000000000001      9.3840000000000003      6.2560000000000002
   333   1      25.024000000000001      9.3840000000000003      6.2560000000000002
   334   4      28.152000000000001      9.3840000000000003      6.2560000000000002
   335   3      31.280000000000001      9.3840000000000003      6.2560000000000002
   336   1      34.408000000000001      9.3840000000000003      6.2560000000000002
   337   5                       0                  12.512      6.2560000000000002
   338   1      3.1280000000000001                  12.512      6.2560000000000002
   339   4      6.2560000000000002                  12.512      6.2560000000000002
   340   2      9.3840000000000003                  12.512      6.2560000000000002
   341   1                  12.512                  12.512      6.2560000000000002
   342   3      15.640000000000001                  12.512      6.2560000000000002
   343   5      18.768000000000001                  12.512      6.2560000000000002
   344   3      21.896000000000001                  12.512      6.2560000000000002
   345   1      25.024000000000001                  12.512      6.2560000000000002
   346   5      28.152000000000001                  12.512      6.2560000000000002
   347   3      31.280000000000001                  12.512      6.2560000000000002
   348   3      34.408000000000001                  12.512      6.2560000000000002
   349   3                       0      15.640000000000001      6.2560000000000002
   350   2      3.1280000000000001      15.640000000000001      6.2560000000000002
   351   1      6.2560000000000002      15.640000000000001      6.2560000000000002
   352   3      9.3840000000000003      15.640000000000001      6.2560000000000002
   353   1                  12.512      15.640000000000001      6.2560000000000002
   354   4      15.640000000000001      15.640000000000001      6.2560000000000002
   355   1      18.768000000000001      15.640000000000001      6.2560000000000002
   356   1      21.896000000000001      15.640000000000001      6.2560000000000002
   357   3      25.024000000000001      15.640000000000001      6.2560000000000002
   358   3      28.152000000000001      15.640000000000001      6.2560000000000002
   359   5      31.280000000000001      15.640000000000001      6.2560000000000002