./HEA/HEA_I.lmp (written by ASE) 

3456 	 atoms 
5  atom types
0.0      37.536000000000001  xlo xhi
0.0      37.536000000000001  ylo yhi
0.0      37.536000000000001  zlo zhi


Atoms 

     1   1                       0                       0                       0
     2   3      3.1280000000000001                       0                       0
     3   5      6.2560000000000002                       0                       0
     4   2      9.3840000000000003                       0                       0
     5   1                  12.512                       0                       0
     6   2      15.640000000000001                       0                       0
     7   2      18.768000000000001                       0                       0
     8   1      21.896000000000001                       0                       0
     9   1      25.024000000000001                       0                       0
    10   3      28.152000000000001                       0                       0
    11   1      31.280000000000001                       0                       0
    12   5      34.408000000000001                       0                       0
    13   1                       0      3.1280000000000001                       0
    14   2      3.1280000000000001      3.1280000000000001                       0
    15   5      6.2560000000000002      3.1280000000000001                       0
    16   3      9.3840000000000003      3.1280000000000001                       0
    17   3                  12.512      3.1280000000000001                       0
    18   4      15.640000000000001      3.1280000000000001                       0
    19   4      18.768000000000001      3.1280000000000001                       0
    20   1      21.896000000000001      3.1280000000000001                       0
    21   4      25.024000000000001      3.1280000000000001                       0
    22   3      28.152000000000001      3.1280000000000001                       0
    23   5      31.280000000000001      3.1280000000000001                       0
    24   3      34.408000000000001      3.1280000000000001                       0
    25   5                       0      6.2560000000000002                       0
    26   3      3.1280000000000001      6.2560000000000002                       0
    27   4      6.2560000000000002      6.2560000000000002                       0
    28   3      9.3840000000000003      6.2560000000000002                       0
    29   5                  12.512      6.2560000000000002                       0
    30   2      15.640000000000001      6.2560000000000002                       0
    31   2      18.768000000000001      6.2560000000000002                       0
    32   1      21.896000000000001      6.2560000000000002                       0
    33   2      25.024000000000001      6.2560000000000002                       0
    34   1      28.152000000000001      6.2560000000000002                       0
    35   4      31.280000000000001      6.2560000000000002                       0
    36   2      34.408000000000001      6.2560000000000002                       0
    37   4                       0      9.3840000000000003                       0
    38   4      3.1280000000000001      9.3840000000000003                       0
    39   4      6.2560000000000002      9.3840000000000003                       0
    40   3      9.3840000000000003      9.3840000000000003                       0
    41   1                  12.512      9.3840000000000003                       0
    42   4      15.640000000000001      9.3840000000000003                       0
    43   4      18.768000000000001      9.3840000000000003                       0
    44   4      21.896000000000001      9.3840000000000003                       0
    45   1      25.024000000000001      9.3840000000000003                       0
    46   3      28.152000000000001      9.3840000000000003                       0
    47   1      31.280000000000001      9.3840000000000003                       0
    48   3      34.408000000000001      9.3840000000000003                       0
    49   3                       0                  12.512                       0
    50   3      3.1280000000000001                  12.512                       0
    51   2      6.2560000000000002                  12.512                       0
    52   3      9.3840000000000003                  12.512                       0
    53   1                  12.512                  12.512                       0
    54   3      15.640000000000001                  12.512                       0
    55   4      18.768000000000001                  12.512                       0
    56   2      21.896000000000001                  12.512                       0
    57   3      25.024000000000001                  12.512                       0
    58   1      28.152000000000001                  12.512                       0
    59   2      31.280000000000001                  12.512                       0
    60   1      34.408000000000001                  12.512                       0
    61   2                       0      15.640000000000001                       0
    62   3      3.1280000000000001      15.640000000000001                       0
    63   4      6.2560000000000002      15.640000000000001                       0
    64   3      9.3840000000000003      15.640000000000001                       0
    65   1                  12.512      15.640000000000001                       0
    66   1      15.640000000000001      15.640000000000001                       0
    67   4      18.768000000000001      15.640000000000001                       0
    68   3      21.896000000000001      15.640000000000001                       0
    69   3      25.024000000000001      15.640000000000001                       0
    70   4      28.152000000000001      15.640000000000001                       0
    71   5      31.280000000000001      15.640000000000001                       0
    72   3      34.408000000000001      15.640000000000001                       0
    73   1                       0      18.768000000000001                       0
    74   5      3.1280000000000001      18.768000000000001                       0
    75   5      6.2560000000000002      18.768000000000001                       0
    76   3      9.3840000000000003      18.768000000000001                       0
    77   1                  12.512      18.768000000000001                       0
    78   5      15.640000000000001      18.768000000000001                       0
    79   4      18.768000000000001      18.768000000000001                       0
    80   1      21.896000000000001      18.768000000000001                       0
    81   2      25.024000000000001      18.768000000000001                       0
    82   3      28.152000000000001      18.768000000000001                       0
    83   3      31.280000000000001      18.768000000000001                       0
    84   3      34.408000000000001      18.768000000000001                       0
    85   4                       0      21.896000000000001                       0
    86   1      3.1280000000000001      21.896000000000001                       0
    87   4      6.2560000000000002      21.896000000000001                       0
    88   4      9.3840000000000003      21.896000000000001                       0
    89   1                  12.512      21.896000000000001                       0
    90   3      15.640000000000001      21.896000000000001                       0
    91   2      18.768000000000001      21.896000000000001                       0
    92   2      21.896000000000001      21.896000000000001                       0
    93   5      25.024000000000001      21.896000000000001                       0
    94   1      28.152000000000001      21.896000000000001                       0
    95   3      31.280000000000001      21.896000000000001                       0
    96   4      34.408000000000001      21.896000000000001                       0
    97   4                       0      25.024000000000001                       0
    98   1      3.1280000000000001      25.024000000000001                       0
    99   5      6.2560000000000002      25.024000000000001                       0
   100   4      9.3840000000000003      25.024000000000001                       0
   101   2                  12.512      25.024000000000001                       0
   102   1      15.640000000000001      25.024000000000001                       0
   103   2      18.768000000000001      25.024000000000001                       0
   104   1      21.896000000000001      25.024000000000001                       0
   105   5      25.024000000000001      25.024000000000001                       0
   106   3      28.152000000000001      25.024000000000001                       0
   107   5      31.280000000000001      25.024000000000001                       0
   108   4      34.408000000000001      25.024000000000001                       0
   109   1                       0      28.152000000000001                       0
   110   2      3.1280000000000001      28.152000000000001                       0
   111   3      6.2560000000000002      28.152000000000001                       0
   112   3      9.3840000000000003      28.152000000000001                       0
   113   1                  12.512      28.152000000000001                       0
   114   4      15.640000000000001      28.152000000000001                       0
   115   1      18.768000000000001      28.152000000000001                       0
   116   1      21.896000000000001      28.152000000000001                       0
   117   1      25.024000000000001      28.152000000000001                       0
   118   4      28.152000000000001      28.152000000000001                       0
   119   5      31.280000000000001      28.152000000000001                       0
   120   1      34.408000000000001      28.152000000000001                       0
   121   2                       0      31.280000000000001                       0
   122   5      3.1280000000000001      31.280000000000001                       0
   123   4      6.2560000000000002      31.280000000000001                       0
   124   5      9.3840000000000003      31.280000000000001                       0
   125   4                  12.512      31.280000000000001                       0
   126   3      15.640000000000001      31.280000000000001                       0
   127   2      18.768000000000001      31.280000000000001                       0
   128   2      21.896000000000001      31.280000000000001                       0
   129   4      25.024000000000001      31.280000000000001                       0
   130   5      28.152000000000001      31.280000000000001                       0
   131   4      31.280000000000001      31.280000000000001                       0
   132   1      34.408000000000001      31.280000000000001                       0
   133   1                       0      34.408000000000001                       0
   134   3      3.1280000000000001      34.408000000000001                       0
   135   3      6.2560000000000002      34.408000000000001                       0
   136   5      9.3840000000000003      34.408000000000001                       0
   137   5                  12.512      34.408000000000001                       0
   138   4      15.640000000000001      34.408000000000001                       0
   139   1      18.768000000000001      34.408000000000001                       0
   140   4      21.896000000000001      34.408000000000001                       0
   141   2      25.024000000000001      34.408000000000001                       0
   142   1      28.152000000000001      34.408000000000001                       0
   143   5      31.280000000000001      34.408000000000001                       0
   144   5      34.408000000000001      34.408000000000001                       0
   145   4                       0                       0      3.1280000000000001
   146   3      3.1280000000000001                       0      3.1280000000000001
   147   1      6.2560000000000002                       0      3.1280000000000001
   148   3      9.3840000000000003                       0      3.1280000000000001
   149   3                  12.512                       0      3.1280000000000001
   150   3      15.640000000000001                       0      3.1280000000000001
   151   1      18.768000000000001                       0      3.1280000000000001
   152   5      21.896000000000001                       0      3.1280000000000001
   153   1      25.024000000000001                       0      3.1280000000000001
   154   2      28.152000000000001                       0      3.1280000000000001
   155   4      31.280000000000001                       0      3.1280000000000001
   156   1      34.408000000000001                       0      3.1280000000000001
   157   5                       0      3.1280000000000001      3.1280000000000001
   158   2      3.1280000000000001      3.1280000000000001      3.1280000000000001
   159   1      6.2560000000000002      3.1280000000000001      3.1280000000000001
   160   3      9.3840000000000003      3.1280000000000001      3.1280000000000001
   161   5                  12.512      3.1280000000000001      3.1280000000000001
   162   2      15.640000000000001      3.1280000000000001      3.1280000000000001
   163   1      18.768000000000001      3.1280000000000001      3.1280000000000001
   164   3      21.896000000000001      3.1280000000000001      3.1280000000000001
   165   1      25.024000000000001      3.1280000000000001      3.1280000000000001
   166   3      28.152000000000001      3.1280000000000001      3.1280000000000001
   167   3      31.280000000000001      3.1280000000000001      3.1280000000000001
   168   5      34.408000000000001      3.1280000000000001      3.1280000000000001
   169   3                       0      6.2560000000000002      3.1280000000000001
   170   4      3.1280000000000001      6.2560000000000002      3.1280000000000001
   171   3      6.2560000000000002      6.2560000000000002      3.1280000000000001
   172   2      9.3840000000000003      6.2560000000000002      3.1280000000000001
   173   4                  12.512      6.2560000000000002      3.1280000000000001
   174   4      15.640000000000001      6.2560000000000002      3.1280000000000001
   175   3      18.768000000000001      6.2560000000000002      3.1280000000000001
   176   1      21.896000000000001      6.2560000000000002      3.1280000000000001
   177   3      25.024000000000001      6.2560000000000002      3.1280000000000001
   178   2      28.152000000000001      6.2560000000000002      3.1280000000000001
   179   4      31.280000000000001      6.2560000000000002      3.1280000000000001
   180   3      34.408000000000001      6.2560000000000002      3.1280000000000001
   181   2                       0      9.3840000000000003      3.1280000000000001
   182   5      3.1280000000000001      9.3840000000000003      3.1280000000000001
   183   1      6.2560000000000002      9.3840000000000003      3.1280000000000001
   184   3      9.3840000000000003      9.3840000000000003      3.1280000000000001
   185   5                  12.512      9.3840000000000003      3.1280000000000001
   186   4      15.640000000000001      9.3840000000000003      3.1280000000000001
   187   3      18.768000000000001      9.3840000000000003      3.1280000000000001
   188   4      21.896000000000001      9.3840000000000003      3.1280000000000001
   189   5      25.024000000000001      9.3840000000000003      3.1280000000000001
   190   1      28.152000000000001      9.3840000000000003      3.1280000000000001
   191   3      31.280000000000001      9.3840000000000003      3.1280000000000001
   192   3      34.408000000000001      9.3840000000000003      3.1280000000000001
   193   1                       0                  12.512      3.1280000000000001
   194   3      3.1280000000000001                  12.512      3.1280000000000001
   195   4      6.2560000000000002                  12.512      3.1280000000000001
   196   5      9.3840000000000003                  12.512      3.1280000000000001
   197   4                  12.512                  12.512      3.1280000000000001
   198   4      15.640000000000001                  12.512      3.1280000000000001
   199   1      18.768000000000001                  12.512      3.1280000000000001
   200   5      21.896000000000001                  12.512      3.1280000000000001
   201   1      25.024000000000001                  12.512      3.1280000000000001
   202   2      28.152000000000001                  12.512      3.1280000000000001
   203   5      31.280000000000001                  12.512      3.1280000000000001
   204   3      34.408000000000001                  12.512      3.1280000000000001
   205   3                       0      15.640000000000001      3.1280000000000001
   206   3      3.1280000000000001      15.640000000000001      3.1280000000000001
   207   1      6.2560000000000002      15.640000000000001      3.1280000000000001
   208   2      9.3840000000000003      15.640000000000001      3.1280000000000001
   209   1                  12.512      15.640000000000001      3.1280000000000001
   210   1      15.640000000000001      15.640000000000001      3.1280000000000001
   211   1      18.768000000000001      15.640000000000001      3.1280000000000001
   212   3      21.896000000000001      15.640000000000001      3.1280000000000001
   213   2      25.024000000000001      15.640000000000001      3.1280000000000001
   214   2      28.152000000000001      15.640000000000001      3.1280000000000001
   215   5      31.280000000000001      15.640000000000001      3.1280000000000001
   216   2      34.408000000000001      15.640000000000001      3.1280000000000001
   217   2                       0      18.768000000000001      3.1280000000000001
   218   1      3.1280000000000001      18.768000000000001      3.1280000000000001
   219   1      6.2560000000000002      18.768000000000001      3.1280000000000001
   220   3      9.3840000000000003      18.768000000000001      3.1280000000000001
   221   2                  12.512      18.768000000000001      3.1280000000000001
   222   5      15.640000000000001      18.768000000000001      3.1280000000000001
   223   1      18.768000000000001      18.768000000000001      3.1280000000000001
   224   2      21.896000000000001      18.768000000000001      3.1280000000000001
   225   5      25.024000000000001      18.768000000000001      3.1280000000000001
   226   4      28.152000000000001      18.768000000000001      3.1280000000000001
   227   3      31.280000000000001      18.768000000000001      3.1280000000000001
   228   4      34.408000000000001      18.768000000000001      3.1280000000000001
   229   2                       0      21.896000000000001      3.1280000000000001
   230   5      3.1280000000000001      21.896000000000001      3.1280000000000001
   231   4      6.2560000000000002      21.896000000000001      3.1280000000000001
   232   3      9.3840000000000003      21.896000000000001      3.1280000000000001
   233   1                  12.512      21.896000000000001      3.1280000000000001
   234   3      15.640000000000001      21.896000000000001      3.1280000000000001
   235   1      18.768000000000001      21.896000000000001      3.1280000000000001
   236   5      21.896000000000001      21.896000000000001      3.1280000000000001
   237   3      25.024000000000001      21.896000000000001      3.1280000000000001
   238   3      28.152000000000001      21.896000000000001      3.1280000000000001
   239   3      31.280000000000001      21.896000000000001      3.1280000000000001
   240   4      34.408000000000001      21.896000000000001      3.1280000000000001
   241   5                       0      25.024000000000001      3.1280000000000001
   242   3      3.1280000000000001      25.024000000000001      3.1280000000000001
   243   2      6.2560000000000002      25.024000000000001      3.1280000000000001
   244   5      9.3840000000000003      25.024000000000001      3.1280000000000001
   245   3                  12.512      25.024000000000001      3.1280000000000001
   246   1      15.640000000000001      25.024000000000001      3.1280000000000001
   247   1      18.768000000000001      25.024000000000001      3.1280000000000001
   248   5      21.896000000000001      25.024000000000001      3.1280000000000001
   249   3      25.024000000000001      25.024000000000001      3.1280000000000001
   250   1      28.152000000000001      25.024000000000001      3.1280000000000001
   251   5      31.280000000000001      25.024000000000001      3.1280000000000001
   252   1      34.408000000000001      25.024000000000001      3.1280000000000001
   253   3                       0      28.152000000000001      3.1280000000000001
   254   2      3.1280000000000001      28.152000000000001      3.1280000000000001
   255   4      6.2560000000000002      28.152000000000001      3.1280000000000001
   256   2      9.3840000000000003      28.152000000000001      3.1280000000000001
   257   1                  12.512      28.152000000000001      3.1280000000000001
   258   1      15.640000000000001      28.152000000000001      3.1280000000000001
   259   5      18.768000000000001      28.152000000000001      3.1280000000000001
   260   3      21.896000000000001      28.152000000000001      3.1280000000000001
   261   5      25.024000000000001      28.152000000000001      3.1280000000000001
   262   1      28.152000000000001      28.152000000000001      3.1280000000000001
   263   3      31.280000000000001      28.152000000000001      3.1280000000000001
   264   5      34.408000000000001      28.152000000000001      3.1280000000000001
   265   3                       0      31.280000000000001      3.1280000000000001
   266   4      3.1280000000000001      31.280000000000001      3.1280000000000001
   267   1      6.2560000000000002      31.280000000000001      3.1280000000000001
   268   5      9.3840000000000003      31.280000000000001      3.1280000000000001
   269   1                  12.512      31.280000000000001      3.1280000000000001
   270   1      15.640000000000001      31.280000000000001      3.1280000000000001
   271   3      18.768000000000001      31.280000000000001      3.1280000000000001
   272   5      21.896000000000001      31.280000000000001      3.1280000000000001
   273   1      25.024000000000001      31.280000000000001      3.1280000000000001
   274   1      28.152000000000001      31.280000000000001      3.1280000000000001
   275   1      31.280000000000001      31.280000000000001      3.1280000000000001
   276   2      34.408000000000001      31.280000000000001      3.1280000000000001
   277   1                       0      34.408000000000001      3.1280000000000001
   278   3      3.1280000000000001      34.408000000000001      3.1280000000000001
   279   3      6.2560000000000002      34.408000000000001      3.1280000000000001
   280   3      9.3840000000000003      34.408000000000001      3.1280000000000001
   281   1                  12.512      34.408000000000001      3.1280000000000001
   282   2      15.640000000000001      34.408000000000001      3.1280000000000001
   283   5      18.768000000000001      34.408000000000001      3.1280000000000001
   284   2      21.896000000000001      34.408000000000001      3.1280000000000001
   285   1      25.024000000000001      34.408000000000001      3.1280000000000001
   286   3      28.152000000000001      34.408000000000001      3.1280000000000001
   287   1      31.280000000000001      34.408000000000001      3.1280000000000001
   288   4      34.408000000000001      34.408000000000001      3.1280000000000001
   289   3                       0                       0      6.2560000000000002
   290   3      3.1280000000000001                       0      6.2560000000000002
   291   3      6.2560000000000002                       0      6.2560000000000002
   292   4      9.3840000000000003                       0      6.2560000000000002
   293   2                  12.512                       0      6.2560000000000002
   294   1      15.640000000000001                       0      6.2560000000000002
   295   2      18.768000000000001                       0      6.2560000000000002
   296   5      21.896000000000001                       0      6.2560000000000002
   297   4      25.024000000000001                       0      6.2560000000000002
   298   4      28.152000000000001                       0      6.2560000000000002
   299   3      31.280000000000001                       0      6.2560000000000002
   300   5      34.408000000000001                       0      6.2560000000000002
   301   1                       0      3.1280000000000001      6.2560000000000002
   302   5      3.1280000000000001      3.1280000000000001      6.2560000000000002
   303   2      6.2560000000000002      3.1280000000000001      6.2560000000000002
   304   3      9.3840000000000003      3.1280000000000001      6.2560000000000002
   305   5                  12.512      3.1280000000000001      6.2560000000000002
   306   2      15.640000000000001      3.1280000000000001      6.2560000000000002
   307   1      18.768000000000001      3.1280000000000001      6.2560000000000002
   308   1      21.896000000000001      3.1280000000000001      6.2560000000000002
   309   2      25.024000000000001      3.1280000000000001      6.2560000000000002
   310   5      28.152000000000001      3.1280000000000001      6.2560000000000002
   311   4      31.280000000000001      3.1280000000000001      6.2560000000000002
   312   3      34.408000000000001      3.1280000000000001      6.2560000000000002
   313   3                       0      6.2560000000000002      6.2560000000000002
   314   3      3.1280000000000001      6.2560000000000002      6.2560000000000002
   315   2      6.2560000000000002      6.2560000000000002      6.2560000000000002
   316   4      9.3840000000000003      6.2560000000000002      6.2560000000000002
   317   2                  12.512      6.2560000000000002      6.2560000000000002
   318   5      15.640000000000001      6.2560000000000002      6.2560000000000002
   319   3      18.768000000000001      6.2560000000000002      6.2560000000000002
   320   4      21.896000000000001      6.2560000000000002      6.2560000000000002
   321   3      25.024000000000001      6.2560000000000002      6.2560000000000002
   322   3      28.152000000000001      6.2560000000000002      6.2560000000000002
   323   2      31.280000000000001      6.2560000000000002      6.2560000000000002
   324   3      34.408000000000001      6.2560000000000002      6.2560000000000002
   325   2                       0      9.3840000000000003      6.2560000000000002
   326   3      3.1280000000000001      9.3840000000000003      6.2560000000000002
   327   5      6.2560000000000002      9.3840000000000003      6.2560000000000002
   328   4      9.3840000000000003      9.3840000000000003      6.2560000000000002
   329   2                  12.512      9.3840000000000003      6.2560000000000002
   330   4      15.640000000000001      9.3840000000000003      6.2560000000000002
   331   5      18.768000000000001      9.3840000000000003      6.2560000000000002
   332   3      21.896000000000001      9.3840000000000003      6.2560000000000002
   333   2      25.024000000000001      9.3840000000000003      6.2560000000000002
   334   2      28.152000000000001      9.3840000000000003      6.2560000000000002
   335   3      31.280000000000001      9.3840000000000003      6.2560000000000002
   336   4      34.408000000000001      9.3840000000000003      6.2560000000000002
   337   3                       0                  12.512      6.2560000000000002
   338   5      3.1280000000000001                  12.512      6.2560000000000002
   339   5      6.2560000000000002                  12.512      6.2560000000000002
   340   5      9.3840000000000003                  12.512      6.2560000000000002
   341   1                  12.512                  12.512      6.2560000000000002
   342   5      15.640000000000001                  12.512      6.2560000000000002
   343   4      18.768000000000001                  12.512      6.2560000000000002
   344   5      21.896000000000001                  12.512      6.2560000000000002
   345   1      25.024000000000001                  12.512      6.2560000000000002
   346   3      28.152000000000001                  12.512      6.2560000000000002
   347   5      31.280000000000001                  12.512      6.2560000000000002
   348   3      34.408000000000001                  12.512      6.2560000000000002
   349   3                       0      15.640000000000001      6.2560000000000002
   350   1      3.1280000000000001      15.640000000000001      6.2560000000000002
   351   5      6.2560000000000002      15.640000000000001      6.2560000000000002
   352   5      9.3840000000000003      15.640000000000001      6.2560000000000002
   353   5                  12.512      15.640000000000001      6.2560000000000002
   354   3      15.640000000000001      15.640000000000001      6.2560000000000002
   355   1      18.768000000000001      15.640000000000001      6.2560000000000002
   356   2      21.896000000000001      15.640000000000001      6.2560000000000002
   357   3      25.024000000000001      15.640000000000001      6.2560000000000002
   358   4      28.152000000000001      15.640000000000001      6.2560000000000002
   359   2      31.280000000000001      15.640000000000001      6.2560000000000002