./HEA/HEA_I.lmp (written by ASE) 

3456 	 atoms 
5  atom types
0.0      37.536000000000001  xlo xhi
0.0      37.536000000000001  ylo yhi
0.0      37.536000000000001  zlo zhi


Atoms 

     1   1                       0                       0                       0
     2   2      3.1280000000000001                       0                       0
     3   2      6.2560000000000002                       0                       0
     4   3      9.3840000000000003                       0                       0
     5   1                  12.512                       0                       0
     6   4      15.640000000000001                       0                       0
     7   3      18.768000000000001                       0                       0
     8   1      21.896000000000001                       0                       0
     9   5      25.024000000000001                       0                       0
    10   1      28.152000000000001                       0                       0
    11   1      31.280000000000001                       0                       0
    12   5      34.408000000000001                       0                       0
    13   3                       0      3.1280000000000001                       0
    14   1      3.1280000000000001      3.1280000000000001                       0
    15   3      6.2560000000000002      3.1280000000000001                       0
    16   3      9.3840000000000003      3.1280000000000001                       0
    17   3                  12.512      3.1280000000000001                       0
    18   5      15.640000000000001      3.1280000000000001                       0
    19   4      18.768000000000001      3.1280000000000001                       0
    20   3      21.896000000000001      3.1280000000000001                       0
    21   5      25.024000000000001      3.1280000000000001                       0
    22   1      28.152000000000001      3.1280000000000001                       0
    23   4      31.280000000000001      3.1280000000000001                       0
    24   3      34.408000000000001      3.1280000000000001                       0
    25   3                       0      6.2560000000000002                       0
    26   3      3.1280000000000001      6.2560000000000002                       0
    27   4      6.2560000000000002      6.2560000000000002                       0
    28   5      9.3840000000000003      6.2560000000000002                       0
    29   2                  12.512      6.2560000000000002                       0
    30   5      15.640000000000001      6.2560000000000002                       0
    31   3      18.768000000000001      6.2560000000000002                       0
    32   1      21.896000000000001      6.2560000000000002                       0
    33   4      25.024000000000001      6.2560000000000002                       0
    34   3      28.152000000000001      6.2560000000000002                       0
    35   2      31.280000000000001      6.2560000000000002                       0
    36   5      34.408000000000001      6.2560000000000002                       0
    37   1                       0      9.3840000000000003                       0
    38   4      3.1280000000000001      9.3840000000000003                       0
    39   1      6.2560000000000002      9.3840000000000003                       0
    40   5      9.3840000000000003      9.3840000000000003                       0
    41   4                  12.512      9.3840000000000003                       0
    42   1      15.640000000000001      9.3840000000000003                       0
    43   5      18.768000000000001      9.3840000000000003                       0
    44   1      21.896000000000001      9.3840000000000003                       0
    45   1      25.024000000000001      9.3840000000000003                       0
    46   1      28.152000000000001      9.3840000000000003                       0
    47   4      31.280000000000001      9.3840000000000003                       0
    48   5      34.408000000000001      9.3840000000000003                       0
    49   5                       0                  12.512                       0
    50   1      3.1280000000000001                  12.512                       0
    51   2      6.2560000000000002                  12.512                       0
    52   5      9.3840000000000003                  12.512                       0
    53   3                  12.512                  12.512                       0
    54   1      15.640000000000001                  12.512                       0
    55   3      18.768000000000001                  12.512                       0
    56   1      21.896000000000001                  12.512                       0
    57   2      25.024000000000001                  12.512                       0
    58   2      28.152000000000001                  12.512                       0
    59   5      31.280000000000001                  12.512                       0
    60   3      34.408000000000001                  12.512                       0
    61   1                       0      15.640000000000001                       0
    62   3      3.1280000000000001      15.640000000000001                       0
    63   3      6.2560000000000002      15.640000000000001                       0
    64   1      9.3840000000000003      15.640000000000001                       0
    65   3                  12.512      15.640000000000001                       0
    66   3      15.640000000000001      15.640000000000001                       0
    67   2      18.768000000000001      15.640000000000001                       0
    68   2      21.896000000000001      15.640000000000001                       0
    69   1      25.024000000000001      15.640000000000001                       0
    70   1      28.152000000000001      15.640000000000001                       0
    71   1      31.280000000000001      15.640000000000001                       0
    72   4      34.408000000000001      15.640000000000001                       0
    73   4                       0      18.768000000000001                       0
    74   2      3.1280000000000001      18.768000000000001                       0
    75   2      6.2560000000000002      18.768000000000001                       0
    76   3      9.3840000000000003      18.768000000000001                       0
    77   5                  12.512      18.768000000000001                       0
    78   3      15.640000000000001      18.768000000000001                       0
    79   1      18.768000000000001      18.768000000000001                       0
    80   3      21.896000000000001      18.768000000000001                       0
    81   1      25.024000000000001      18.768000000000001                       0
    82   4      28.152000000000001      18.768000000000001                       0
    83   4      31.280000000000001      18.768000000000001                       0
    84   5      34.408000000000001      18.768000000000001                       0
    85   3                       0      21.896000000000001                       0
    86   4      3.1280000000000001      21.896000000000001                       0
    87   4      6.2560000000000002      21.896000000000001                       0
    88   4      9.3840000000000003      21.896000000000001                       0
    89   1                  12.512      21.896000000000001                       0
    90   1      15.640000000000001      21.896000000000001                       0
    91   2      18.768000000000001      21.896000000000001                       0
    92   3      21.896000000000001      21.896000000000001                       0
    93   5      25.024000000000001      21.896000000000001                       0
    94   5      28.152000000000001      21.896000000000001                       0
    95   3      31.280000000000001      21.896000000000001                       0
    96   4      34.408000000000001      21.896000000000001                       0
    97   5                       0      25.024000000000001                       0
    98   3      3.1280000000000001      25.024000000000001                       0
    99   5      6.2560000000000002      25.024000000000001                       0
   100   4      9.3840000000000003      25.024000000000001                       0
   101   1                  12.512      25.024000000000001                       0
   102   3      15.640000000000001      25.024000000000001                       0
   103   1      18.768000000000001      25.024000000000001                       0
   104   2      21.896000000000001      25.024000000000001                       0
   105   4      25.024000000000001      25.024000000000001                       0
   106   4      28.152000000000001      25.024000000000001                       0
   107   1      31.280000000000001      25.024000000000001                       0
   108   5      34.408000000000001      25.024000000000001                       0
   109   1                       0      28.152000000000001                       0
   110   4      3.1280000000000001      28.152000000000001                       0
   111   5      6.2560000000000002      28.152000000000001                       0
   112   2      9.3840000000000003      28.152000000000001                       0
   113   4                  12.512      28.152000000000001                       0
   114   1      15.640000000000001      28.152000000000001                       0
   115   1      18.768000000000001      28.152000000000001                       0
   116   4      21.896000000000001      28.152000000000001                       0
   117   1      25.024000000000001      28.152000000000001                       0
   118   4      28.152000000000001      28.152000000000001                       0
   119   5      31.280000000000001      28.152000000000001                       0
   120   3      34.408000000000001      28.152000000000001                       0
   121   2                       0      31.280000000000001                       0
   122   1      3.1280000000000001      31.280000000000001                       0
   123   5      6.2560000000000002      31.280000000000001                       0
   124   3      9.3840000000000003      31.280000000000001                       0
   125   4                  12.512      31.280000000000001                       0
   126   3      15.640000000000001      31.280000000000001                       0
   127   1      18.768000000000001      31.280000000000001                       0
   128   4      21.896000000000001      31.280000000000001                       0
   129   5      25.024000000000001      31.280000000000001                       0
   130   1      28.152000000000001      31.280000000000001                       0
   131   3      31.280000000000001      31.280000000000001                       0
   132   1      34.408000000000001      31.280000000000001                       0
   133   5                       0      34.408000000000001                       0
   134   4      3.1280000000000001      34.408000000000001                       0
   135   3      6.2560000000000002      34.408000000000001                       0
   136   2      9.3840000000000003      34.408000000000001                       0
   137   1                  12.512      34.408000000000001                       0
   138   3      15.640000000000001      34.408000000000001                       0
   139   4      18.768000000000001      34.408000000000001                       0
   140   2      21.896000000000001      34.408000000000001                       0
   141   5      25.024000000000001      34.408000000000001                       0
   142   3      28.152000000000001      34.408000000000001                       0
   143   1      31.280000000000001      34.408000000000001                       0
   144   5      34.408000000000001      34.408000000000001                       0
   145   3                       0                       0      3.1280000000000001
   146   2      3.1280000000000001                       0      3.1280000000000001
   147   3      6.2560000000000002                       0      3.1280000000000001
   148   3      9.3840000000000003                       0      3.1280000000000001
   149   1                  12.512                       0      3.1280000000000001
   150   1      15.640000000000001                       0      3.1280000000000001
   151   1      18.768000000000001                       0      3.1280000000000001
   152   4      21.896000000000001                       0      3.1280000000000001
   153   3      25.024000000000001                       0      3.1280000000000001
   154   3      28.152000000000001                       0      3.1280000000000001
   155   4      31.280000000000001                       0      3.1280000000000001
   156   4      34.408000000000001                       0      3.1280000000000001
   157   1                       0      3.1280000000000001      3.1280000000000001
   158   5      3.1280000000000001      3.1280000000000001      3.1280000000000001
   159   1      6.2560000000000002      3.1280000000000001      3.1280000000000001
   160   5      9.3840000000000003      3.1280000000000001      3.1280000000000001
   161   3                  12.512      3.1280000000000001      3.1280000000000001
   162   1      15.640000000000001      3.1280000000000001      3.1280000000000001
   163   4      18.768000000000001      3.1280000000000001      3.1280000000000001
   164   1      21.896000000000001      3.1280000000000001      3.1280000000000001
   165   2      25.024000000000001      3.1280000000000001      3.1280000000000001
   166   1      28.152000000000001      3.1280000000000001      3.1280000000000001
   167   3      31.280000000000001      3.1280000000000001      3.1280000000000001
   168   1      34.408000000000001      3.1280000000000001      3.1280000000000001
   169   2                       0      6.2560000000000002      3.1280000000000001
   170   1      3.1280000000000001      6.2560000000000002      3.1280000000000001
   171   4      6.2560000000000002      6.2560000000000002      3.1280000000000001
   172   3      9.3840000000000003      6.2560000000000002      3.1280000000000001
   173   5                  12.512      6.2560000000000002      3.1280000000000001
   174   1      15.640000000000001      6.2560000000000002      3.1280000000000001
   175   4      18.768000000000001      6.2560000000000002      3.1280000000000001
   176   4      21.896000000000001      6.2560000000000002      3.1280000000000001
   177   3      25.024000000000001      6.2560000000000002      3.1280000000000001
   178   4      28.152000000000001      6.2560000000000002      3.1280000000000001
   179   3      31.280000000000001      6.2560000000000002      3.1280000000000001
   180   5      34.408000000000001      6.2560000000000002      3.1280000000000001
   181   2                       0      9.3840000000000003      3.1280000000000001
   182   3      3.1280000000000001      9.3840000000000003      3.1280000000000001
   183   2      6.2560000000000002      9.3840000000000003      3.1280000000000001
   184   5      9.3840000000000003      9.3840000000000003      3.1280000000000001
   185   1                  12.512      9.3840000000000003      3.1280000000000001
   186   5      15.640000000000001      9.3840000000000003      3.1280000000000001
   187   3      18.768000000000001      9.3840000000000003      3.1280000000000001
   188   2      21.896000000000001      9.3840000000000003      3.1280000000000001
   189   4      25.024000000000001      9.3840000000000003      3.1280000000000001
   190   1      28.152000000000001      9.3840000000000003      3.1280000000000001
   191   2      31.280000000000001      9.3840000000000003      3.1280000000000001
   192   4      34.408000000000001      9.3840000000000003      3.1280000000000001
   193   3                       0                  12.512      3.1280000000000001
   194   2      3.1280000000000001                  12.512      3.1280000000000001
   195   4      6.2560000000000002                  12.512      3.1280000000000001
   196   3      9.3840000000000003                  12.512      3.1280000000000001
   197   2                  12.512                  12.512      3.1280000000000001
   198   5      15.640000000000001                  12.512      3.1280000000000001
   199   1      18.768000000000001                  12.512      3.1280000000000001
   200   2      21.896000000000001                  12.512      3.1280000000000001
   201   4      25.024000000000001                  12.512      3.1280000000000001
   202   5      28.152000000000001                  12.512      3.1280000000000001
   203   3      31.280000000000001                  12.512      3.1280000000000001
   204   2      34.408000000000001                  12.512      3.1280000000000001
   205   1                       0      15.640000000000001      3.1280000000000001
   206   1      3.1280000000000001      15.640000000000001      3.1280000000000001
   207   3      6.2560000000000002      15.640000000000001      3.1280000000000001
   208   1      9.3840000000000003      15.640000000000001      3.1280000000000001
   209   3                  12.512      15.640000000000001      3.1280000000000001
   210   2      15.640000000000001      15.640000000000001      3.1280000000000001
   211   4      18.768000000000001      15.640000000000001      3.1280000000000001
   212   3      21.896000000000001      15.640000000000001      3.1280000000000001
   213   3      25.024000000000001      15.640000000000001      3.1280000000000001
   214   4      28.152000000000001      15.640000000000001      3.1280000000000001
   215   5      31.280000000000001      15.640000000000001      3.1280000000000001
   216   2      34.408000000000001      15.640000000000001      3.1280000000000001
   217   3                       0      18.768000000000001      3.1280000000000001
   218   2      3.1280000000000001      18.768000000000001      3.1280000000000001
   219   2      6.2560000000000002      18.768000000000001      3.1280000000000001
   220   1      9.3840000000000003      18.768000000000001      3.1280000000000001
   221   5                  12.512      18.768000000000001      3.1280000000000001
   222   5      15.640000000000001      18.768000000000001      3.1280000000000001
   223   3      18.768000000000001      18.768000000000001      3.1280000000000001
   224   3      21.896000000000001      18.768000000000001      3.1280000000000001
   225   2      25.024000000000001      18.768000000000001      3.1280000000000001
   226   2      28.152000000000001      18.768000000000001      3.1280000000000001
   227   1      31.280000000000001      18.768000000000001      3.1280000000000001
   228   5      34.408000000000001      18.768000000000001      3.1280000000000001
   229   3                       0      21.896000000000001      3.1280000000000001
   230   1      3.1280000000000001      21.896000000000001      3.1280000000000001
   231   1      6.2560000000000002      21.896000000000001      3.1280000000000001
   232   2      9.3840000000000003      21.896000000000001      3.1280000000000001
   233   2                  12.512      21.896000000000001      3.1280000000000001
   234   1      15.640000000000001      21.896000000000001      3.1280000000000001
   235   1      18.768000000000001      21.896000000000001      3.1280000000000001
   236   1      21.896000000000001      21.896000000000001      3.1280000000000001
   237   5      25.024000000000001      21.896000000000001      3.1280000000000001
   238   5      28.152000000000001      21.896000000000001      3.1280000000000001
   239   1      31.280000000000001      21.896000000000001      3.1280000000000001
   240   5      34.408000000000001      21.896000000000001      3.1280000000000001
   241   1                       0      25.024000000000001      3.1280000000000001
   242   3      3.1280000000000001      25.024000000000001      3.1280000000000001
   243   4      6.2560000000000002      25.024000000000001      3.1280000000000001
   244   3      9.3840000000000003      25.024000000000001      3.1280000000000001
   245   1                  12.512      25.024000000000001      3.1280000000000001
   246   1      15.640000000000001      25.024000000000001      3.1280000000000001
   247   5      18.768000000000001      25.024000000000001      3.1280000000000001
   248   5      21.896000000000001      25.024000000000001      3.1280000000000001
   249   5      25.024000000000001      25.024000000000001      3.1280000000000001
   250   5      28.152000000000001      25.024000000000001      3.1280000000000001
   251   5      31.280000000000001      25.024000000000001      3.1280000000000001
   252   2      34.408000000000001      25.024000000000001      3.1280000000000001
   253   2                       0      28.152000000000001      3.1280000000000001
   254   5      3.1280000000000001      28.152000000000001      3.1280000000000001
   255   3      6.2560000000000002      28.152000000000001      3.1280000000000001
   256   2      9.3840000000000003      28.152000000000001      3.1280000000000001
   257   2                  12.512      28.152000000000001      3.1280000000000001
   258   1      15.640000000000001      28.152000000000001      3.1280000000000001
   259   2      18.768000000000001      28.152000000000001      3.1280000000000001
   260   4      21.896000000000001      28.152000000000001      3.1280000000000001
   261   5      25.024000000000001      28.152000000000001      3.1280000000000001
   262   3      28.152000000000001      28.152000000000001      3.1280000000000001
   263   4      31.280000000000001      28.152000000000001      3.1280000000000001
   264   4      34.408000000000001      28.152000000000001      3.1280000000000001
   265   3                       0      31.280000000000001      3.1280000000000001
   266   4      3.1280000000000001      31.280000000000001      3.1280000000000001
   267   2      6.2560000000000002      31.280000000000001      3.1280000000000001
   268   4      9.3840000000000003      31.280000000000001      3.1280000000000001
   269   1                  12.512      31.280000000000001      3.1280000000000001
   270   1      15.640000000000001      31.280000000000001      3.1280000000000001
   271   3      18.768000000000001      31.280000000000001      3.1280000000000001
   272   3      21.896000000000001      31.280000000000001      3.1280000000000001
   273   5      25.024000000000001      31.280000000000001      3.1280000000000001
   274   2      28.152000000000001      31.280000000000001      3.1280000000000001
   275   4      31.280000000000001      31.280000000000001      3.1280000000000001
   276   1      34.408000000000001      31.280000000000001      3.1280000000000001
   277   5                       0      34.408000000000001      3.1280000000000001
   278   3      3.1280000000000001      34.408000000000001      3.1280000000000001
   279   3      6.2560000000000002      34.408000000000001      3.1280000000000001
   280   5      9.3840000000000003      34.408000000000001      3.1280000000000001
   281   4                  12.512      34.408000000000001      3.1280000000000001
   282   1      15.640000000000001      34.408000000000001      3.1280000000000001
   283   1      18.768000000000001      34.408000000000001      3.1280000000000001
   284   2      21.896000000000001      34.408000000000001      3.1280000000000001
   285   2      25.024000000000001      34.408000000000001      3.1280000000000001
   286   4      28.152000000000001      34.408000000000001      3.1280000000000001
   287   2      31.280000000000001      34.408000000000001      3.1280000000000001
   288   2      34.408000000000001      34.408000000000001      3.1280000000000001
   289   5                       0                       0      6.2560000000000002
   290   5      3.1280000000000001                       0      6.2560000000000002
   291   5      6.2560000000000002                       0      6.2560000000000002
   292   2      9.3840000000000003                       0      6.2560000000000002
   293   1                  12.512                       0      6.2560000000000002
   294   1      15.640000000000001                       0      6.2560000000000002
   295   5      18.768000000000001                       0      6.2560000000000002
   296   3      21.896000000000001                       0      6.2560000000000002
   297   5      25.024000000000001                       0      6.2560000000000002
   298   4      28.152000000000001                       0      6.2560000000000002
   299   2      31.280000000000001                       0      6.2560000000000002
   300   3      34.408000000000001                       0      6.2560000000000002
   301   3                       0      3.1280000000000001      6.2560000000000002
   302   4      3.1280000000000001      3.1280000000000001      6.2560000000000002
   303   1      6.2560000000000002      3.1280000000000001      6.2560000000000002
   304   5      9.3840000000000003      3.1280000000000001      6.2560000000000002
   305   3                  12.512      3.1280000000000001      6.2560000000000002
   306   3      15.640000000000001      3.1280000000000001      6.2560000000000002
   307   2      18.768000000000001      3.1280000000000001      6.2560000000000002
   308   4      21.896000000000001      3.1280000000000001      6.2560000000000002
   309   1      25.024000000000001      3.1280000000000001      6.2560000000000002
   310   3      28.152000000000001      3.1280000000000001      6.2560000000000002
   311   1      31.280000000000001      3.1280000000000001      6.2560000000000002
   312   1      34.408000000000001      3.1280000000000001      6.2560000000000002
   313   4                       0      6.2560000000000002      6.2560000000000002
   314   1      3.1280000000000001      6.2560000000000002      6.2560000000000002
   315   2      6.2560000000000002      6.2560000000000002      6.2560000000000002
   316   4      9.3840000000000003      6.2560000000000002      6.2560000000000002
   317   1                  12.512      6.2560000000000002      6.2560000000000002
   318   5      15.640000000000001      6.2560000000000002      6.2560000000000002
   319   1      18.768000000000001      6.2560000000000002      6.2560000000000002
   320   1      21.896000000000001      6.2560000000000002      6.2560000000000002
   321   1      25.024000000000001      6.2560000000000002      6.2560000000000002
   322   1      28.152000000000001      6.2560000000000002      6.2560000000000002
   323   2      31.280000000000001      6.2560000000000002      6.2560000000000002
   324   3      34.408000000000001      6.2560000000000002      6.2560000000000002
   325   1                       0      9.3840000000000003      6.2560000000000002
   326   3      3.1280000000000001      9.3840000000000003      6.2560000000000002
   327   4      6.2560000000000002      9.3840000000000003      6.2560000000000002
   328   1      9.3840000000000003      9.3840000000000003      6.2560000000000002
   329   5                  12.512      9.3840000000000003      6.2560000000000002
   330   5      15.640000000000001      9.3840000000000003      6.2560000000000002
   331   2      18.768000000000001      9.3840000000000003      6.2560000000000002
   332   1      21.896000000000001      9.3840000000000003      6.2560000000000002
   333   4      25.024000000000001      9.3840000000000003      6.2560000000000002
   334   4      28.152000000000001      9.3840000000000003      6.2560000000000002
   335   2      31.280000000000001      9.3840000000000003      6.2560000000000002
   336   5      34.408000000000001      9.3840000000000003      6.2560000000000002
   337   1                       0                  12.512      6.2560000000000002
   338   5      3.1280000000000001                  12.512      6.2560000000000002
   339   4      6.2560000000000002                  12.512      6.2560000000000002
   340   2      9.3840000000000003                  12.512      6.2560000000000002
   341   3                  12.512                  12.512      6.2560000000000002
   342   2      15.640000000000001                  12.512      6.2560000000000002
   343   1      18.768000000000001                  12.512      6.2560000000000002
   344   1      21.896000000000001                  12.512      6.2560000000000002
   345   1      25.024000000000001                  12.512      6.2560000000000002
   346   1      28.152000000000001                  12.512      6.2560000000000002
   347   3      31.280000000000001                  12.512      6.2560000000000002
   348   5      34.408000000000001                  12.512      6.2560000000000002
   349   1                       0      15.640000000000001      6.2560000000000002
   350   5      3.1280000000000001      15.640000000000001      6.2560000000000002
   351   2      6.2560000000000002      15.640000000000001      6.2560000000000002
   352   3      9.3840000000000003      15.640000000000001      6.2560000000000002
   353   1                  12.512      15.640000000000001      6.2560000000000002
   354   5      15.640000000000001      15.640000000000001      6.2560000000000002
   355   3      18.768000000000001      15.640000000000001      6.2560000000000002
   356   3      21.896000000000001      15.640000000000001      6.2560000000000002
   357   1      25.024000000000001      15.640000000000001      6.2560000000000002
   358   2      28.152000000000001      15.640000000000001      6.2560000000000002
   359   2      31.280000000000001      15.640000000000001      6.2560000000000002