./HEA/HEA_II.lmp (written by ASE) 

3456 	 atoms 
5  atom types
0.0      37.536000000000001  xlo xhi
0.0      37.536000000000001  ylo yhi
0.0      37.536000000000001  zlo zhi


Atoms 

     1   1                       0                       0                       0
     2   1      3.1280000000000001                       0                       0
     3   2      6.2560000000000002                       0                       0
     4   2      9.3840000000000003                       0                       0
     5   1                  12.512                       0                       0
     6   2      15.640000000000001                       0                       0
     7   1      18.768000000000001                       0                       0
     8   1      21.896000000000001                       0                       0
     9   1      25.024000000000001                       0                       0
    10   2      28.152000000000001                       0                       0
    11   1      31.280000000000001                       0                       0
    12   1      34.408000000000001                       0                       0
    13   1                       0      3.1280000000000001                       0
    14   2      3.1280000000000001      3.1280000000000001                       0
    15   2      6.2560000000000002      3.1280000000000001                       0
    16   2      9.3840000000000003      3.1280000000000001                       0
    17   2                  12.512      3.1280000000000001                       0
    18   2      15.640000000000001      3.1280000000000001                       0
    19   1      18.768000000000001      3.1280000000000001                       0
    20   1      21.896000000000001      3.1280000000000001                       0
    21   1      25.024000000000001      3.1280000000000001                       0
    22   2      28.152000000000001      3.1280000000000001                       0
    23   2      31.280000000000001      3.1280000000000001                       0
    24   1      34.408000000000001      3.1280000000000001                       0
    25   1                       0      6.2560000000000002                       0
    26   2      3.1280000000000001      6.2560000000000002                       0
    27   2      6.2560000000000002      6.2560000000000002                       0
    28   2      9.3840000000000003      6.2560000000000002                       0
    29   1                  12.512      6.2560000000000002                       0
    30   1      15.640000000000001      6.2560000000000002                       0
    31   1      18.768000000000001      6.2560000000000002                       0
    32   1      21.896000000000001      6.2560000000000002                       0
    33   1      25.024000000000001      6.2560000000000002                       0
    34   2      28.152000000000001      6.2560000000000002                       0
    35   1      31.280000000000001      6.2560000000000002                       0
    36   2      34.408000000000001      6.2560000000000002                       0
    37   2                       0      9.3840000000000003                       0
    38   2      3.1280000000000001      9.3840000000000003                       0
    39   2      6.2560000000000002      9.3840000000000003                       0
    40   1      9.3840000000000003      9.3840000000000003                       0
    41   2                  12.512      9.3840000000000003                       0
    42   2      15.640000000000001      9.3840000000000003                       0
    43   1      18.768000000000001      9.3840000000000003                       0
    44   2      21.896000000000001      9.3840000000000003                       0
    45   2      25.024000000000001      9.3840000000000003                       0
    46   1      28.152000000000001      9.3840000000000003                       0
    47   2      31.280000000000001      9.3840000000000003                       0
    48   2      34.408000000000001      9.3840000000000003                       0
    49   1                       0                  12.512                       0
    50   2      3.1280000000000001                  12.512                       0
    51   2      6.2560000000000002                  12.512                       0
    52   2      9.3840000000000003                  12.512                       0
    53   1                  12.512                  12.512                       0
    54   2      15.640000000000001                  12.512                       0
    55   2      18.768000000000001                  12.512                       0
    56   2      21.896000000000001                  12.512                       0
    57   1      25.024000000000001                  12.512                       0
    58   1      28.152000000000001                  12.512                       0
    59   1      31.280000000000001                  12.512                       0
    60   1      34.408000000000001                  12.512                       0
    61   2                       0      15.640000000000001                       0
    62   2      3.1280000000000001      15.640000000000001                       0
    63   2      6.2560000000000002      15.640000000000001                       0
    64   2      9.3840000000000003      15.640000000000001                       0
    65   2                  12.512      15.640000000000001                       0
    66   2      15.640000000000001      15.640000000000001                       0
    67   2      18.768000000000001      15.640000000000001                       0
    68   1      21.896000000000001      15.640000000000001                       0
    69   1      25.024000000000001      15.640000000000001                       0
    70   1      28.152000000000001      15.640000000000001                       0
    71   2      31.280000000000001      15.640000000000001                       0
    72   1      34.408000000000001      15.640000000000001                       0
    73   1                       0      18.768000000000001                       0
    74   2      3.1280000000000001      18.768000000000001                       0
    75   2      6.2560000000000002      18.768000000000001                       0
    76   1      9.3840000000000003      18.768000000000001                       0
    77   1                  12.512      18.768000000000001                       0
    78   1      15.640000000000001      18.768000000000001                       0
    79   1      18.768000000000001      18.768000000000001                       0
    80   1      21.896000000000001      18.768000000000001                       0
    81   1      25.024000000000001      18.768000000000001                       0
    82   2      28.152000000000001      18.768000000000001                       0
    83   1      31.280000000000001      18.768000000000001                       0
    84   1      34.408000000000001      18.768000000000001                       0
    85   1                       0      21.896000000000001                       0
    86   1      3.1280000000000001      21.896000000000001                       0
    87   2      6.2560000000000002      21.896000000000001                       0
    88   2      9.3840000000000003      21.896000000000001                       0
    89   2                  12.512      21.896000000000001                       0
    90   2      15.640000000000001      21.896000000000001                       0
    91   2      18.768000000000001      21.896000000000001                       0
    92   2      21.896000000000001      21.896000000000001                       0
    93   2      25.024000000000001      21.896000000000001                       0
    94   1      28.152000000000001      21.896000000000001                       0
    95   1      31.280000000000001      21.896000000000001                       0
    96   1      34.408000000000001      21.896000000000001                       0
    97   2                       0      25.024000000000001                       0
    98   1      3.1280000000000001      25.024000000000001                       0
    99   1      6.2560000000000002      25.024000000000001                       0
   100   2      9.3840000000000003      25.024000000000001                       0
   101   1                  12.512      25.024000000000001                       0
   102   1      15.640000000000001      25.024000000000001                       0
   103   2      18.768000000000001      25.024000000000001                       0
   104   2      21.896000000000001      25.024000000000001                       0
   105   2      25.024000000000001      25.024000000000001                       0
   106   2      28.152000000000001      25.024000000000001                       0
   107   2      31.280000000000001      25.024000000000001                       0
   108   1      34.408000000000001      25.024000000000001                       0
   109   1                       0      28.152000000000001                       0
   110   2      3.1280000000000001      28.152000000000001                       0
   111   2      6.2560000000000002      28.152000000000001                       0
   112   2      9.3840000000000003      28.152000000000001                       0
   113   2                  12.512      28.152000000000001                       0
   114   2      15.640000000000001      28.152000000000001                       0
   115   1      18.768000000000001      28.152000000000001                       0
   116   2      21.896000000000001      28.152000000000001                       0
   117   2      25.024000000000001      28.152000000000001                       0
   118   2      28.152000000000001      28.152000000000001                       0
   119   1      31.280000000000001      28.152000000000001                       0
   120   1      34.408000000000001      28.152000000000001                       0
   121   2                       0      31.280000000000001                       0
   122   2      3.1280000000000001      31.280000000000001                       0
   123   2      6.2560000000000002      31.280000000000001                       0
   124   1      9.3840000000000003      31.280000000000001                       0
   125   1                  12.512      31.280000000000001                       0
   126   2      15.640000000000001      31.280000000000001                       0
   127   1      18.768000000000001      31.280000000000001                       0
   128   1      21.896000000000001      31.280000000000001                       0
   129   2      25.024000000000001      31.280000000000001                       0
   130   2      28.152000000000001      31.280000000000001                       0
   131   2      31.280000000000001      31.280000000000001                       0
   132   2      34.408000000000001      31.280000000000001                       0
   133   2                       0      34.408000000000001                       0
   134   2      3.1280000000000001      34.408000000000001                       0
   135   2      6.2560000000000002      34.408000000000001                       0
   136   1      9.3840000000000003      34.408000000000001                       0
   137   2                  12.512      34.408000000000001                       0
   138   2      15.640000000000001      34.408000000000001                       0
   139   1      18.768000000000001      34.408000000000001                       0
   140   2      21.896000000000001      34.408000000000001                       0
   141   1      25.024000000000001      34.408000000000001                       0
   142   1      28.152000000000001      34.408000000000001                       0
   143   1      31.280000000000001      34.408000000000001                       0
   144   2      34.408000000000001      34.408000000000001                       0
   145   2                       0                       0      3.1280000000000001
   146   1      3.1280000000000001                       0      3.1280000000000001
   147   2      6.2560000000000002                       0      3.1280000000000001
   148   1      9.3840000000000003                       0      3.1280000000000001
   149   1                  12.512                       0      3.1280000000000001
   150   1      15.640000000000001                       0      3.1280000000000001
   151   2      18.768000000000001                       0      3.1280000000000001
   152   2      21.896000000000001                       0      3.1280000000000001
   153   1      25.024000000000001                       0      3.1280000000000001
   154   1      28.152000000000001                       0      3.1280000000000001
   155   2      31.280000000000001                       0      3.1280000000000001
   156   2      34.408000000000001                       0      3.1280000000000001
   157   2                       0      3.1280000000000001      3.1280000000000001
   158   2      3.1280000000000001      3.1280000000000001      3.1280000000000001
   159   2      6.2560000000000002      3.1280000000000001      3.1280000000000001
   160   1      9.3840000000000003      3.1280000000000001      3.1280000000000001
   161   2                  12.512      3.1280000000000001      3.1280000000000001
   162   1      15.640000000000001      3.1280000000000001      3.1280000000000001
   163   2      18.768000000000001      3.1280000000000001      3.1280000000000001
   164   1      21.896000000000001      3.1280000000000001      3.1280000000000001
   165   2      25.024000000000001      3.1280000000000001      3.1280000000000001
   166   2      28.152000000000001      3.1280000000000001      3.1280000000000001
   167   1      31.280000000000001      3.1280000000000001      3.1280000000000001
   168   1      34.408000000000001      3.1280000000000001      3.1280000000000001
   169   2                       0      6.2560000000000002      3.1280000000000001
   170   2      3.1280000000000001      6.2560000000000002      3.1280000000000001
   171   1      6.2560000000000002      6.2560000000000002      3.1280000000000001
   172   2      9.3840000000000003      6.2560000000000002      3.1280000000000001
   173   1                  12.512      6.2560000000000002      3.1280000000000001
   174   2      15.640000000000001      6.2560000000000002      3.1280000000000001
   175   1      18.768000000000001      6.2560000000000002      3.1280000000000001
   176   2      21.896000000000001      6.2560000000000002      3.1280000000000001
   177   2      25.024000000000001      6.2560000000000002      3.1280000000000001
   178   2      28.152000000000001      6.2560000000000002      3.1280000000000001
   179   1      31.280000000000001      6.2560000000000002      3.1280000000000001
   180   2      34.408000000000001      6.2560000000000002      3.1280000000000001
   181   1                       0      9.3840000000000003      3.1280000000000001
   182   1      3.1280000000000001      9.3840000000000003      3.1280000000000001
   183   1      6.2560000000000002      9.3840000000000003      3.1280000000000001
   184   1      9.3840000000000003      9.3840000000000003      3.1280000000000001
   185   2                  12.512      9.3840000000000003      3.1280000000000001
   186   2      15.640000000000001      9.3840000000000003      3.1280000000000001
   187   1      18.768000000000001      9.3840000000000003      3.1280000000000001
   188   1      21.896000000000001      9.3840000000000003      3.1280000000000001
   189   1      25.024000000000001      9.3840000000000003      3.1280000000000001
   190   1      28.152000000000001      9.3840000000000003      3.1280000000000001
   191   2      31.280000000000001      9.3840000000000003      3.1280000000000001
   192   2      34.408000000000001      9.3840000000000003      3.1280000000000001
   193   2                       0                  12.512      3.1280000000000001
   194   2      3.1280000000000001                  12.512      3.1280000000000001
   195   2      6.2560000000000002                  12.512      3.1280000000000001
   196   2      9.3840000000000003                  12.512      3.1280000000000001
   197   1                  12.512                  12.512      3.1280000000000001
   198   2      15.640000000000001                  12.512      3.1280000000000001
   199   1      18.768000000000001                  12.512      3.1280000000000001
   200   2      21.896000000000001                  12.512      3.1280000000000001
   201   2      25.024000000000001                  12.512      3.1280000000000001
   202   2      28.152000000000001                  12.512      3.1280000000000001
   203   1      31.280000000000001                  12.512      3.1280000000000001
   204   1      34.408000000000001                  12.512      3.1280000000000001
   205   2                       0      15.640000000000001      3.1280000000000001
   206   1      3.1280000000000001      15.640000000000001      3.1280000000000001
   207   2      6.2560000000000002      15.640000000000001      3.1280000000000001
   208   1      9.3840000000000003      15.640000000000001      3.1280000000000001
   209   2                  12.512      15.640000000000001      3.1280000000000001
   210   1      15.640000000000001      15.640000000000001      3.1280000000000001
   211   1      18.768000000000001      15.640000000000001      3.1280000000000001
   212   1      21.896000000000001      15.640000000000001      3.1280000000000001
   213   2      25.024000000000001      15.640000000000001      3.1280000000000001
   214   2      28.152000000000001      15.640000000000001      3.1280000000000001
   215   2      31.280000000000001      15.640000000000001      3.1280000000000001
   216   2      34.408000000000001      15.640000000000001      3.1280000000000001
   217   2                       0      18.768000000000001      3.1280000000000001
   218   2      3.1280000000000001      18.768000000000001      3.1280000000000001
   219   1      6.2560000000000002      18.768000000000001      3.1280000000000001
   220   2      9.3840000000000003      18.768000000000001      3.1280000000000001
   221   2                  12.512      18.768000000000001      3.1280000000000001
   222   1      15.640000000000001      18.768000000000001      3.1280000000000001
   223   2      18.768000000000001      18.768000000000001      3.1280000000000001
   224   2      21.896000000000001      18.768000000000001      3.1280000000000001
   225   1      25.024000000000001      18.768000000000001      3.1280000000000001
   226   2      28.152000000000001      18.768000000000001      3.1280000000000001
   227   2      31.280000000000001      18.768000000000001      3.1280000000000001
   228   1      34.408000000000001      18.768000000000001      3.1280000000000001
   229   2                       0      21.896000000000001      3.1280000000000001
   230   1      3.1280000000000001      21.896000000000001      3.1280000000000001
   231   2      6.2560000000000002      21.896000000000001      3.1280000000000001
   232   1      9.3840000000000003      21.896000000000001      3.1280000000000001
   233   1                  12.512      21.896000000000001      3.1280000000000001
   234   2      15.640000000000001      21.896000000000001      3.1280000000000001
   235   1      18.768000000000001      21.896000000000001      3.1280000000000001
   236   1      21.896000000000001      21.896000000000001      3.1280000000000001
   237   1      25.024000000000001      21.896000000000001      3.1280000000000001
   238   2      28.152000000000001      21.896000000000001      3.1280000000000001
   239   2      31.280000000000001      21.896000000000001      3.1280000000000001
   240   2      34.408000000000001      21.896000000000001      3.1280000000000001
   241   2                       0      25.024000000000001      3.1280000000000001
   242   1      3.1280000000000001      25.024000000000001      3.1280000000000001
   243   1      6.2560000000000002      25.024000000000001      3.1280000000000001
   244   1      9.3840000000000003      25.024000000000001      3.1280000000000001
   245   1                  12.512      25.024000000000001      3.1280000000000001
   246   2      15.640000000000001      25.024000000000001      3.1280000000000001
   247   2      18.768000000000001      25.024000000000001      3.1280000000000001
   248   2      21.896000000000001      25.024000000000001      3.1280000000000001
   249   2      25.024000000000001      25.024000000000001      3.1280000000000001
   250   2      28.152000000000001      25.024000000000001      3.1280000000000001
   251   2      31.280000000000001      25.024000000000001      3.1280000000000001
   252   2      34.408000000000001      25.024000000000001      3.1280000000000001
   253   2                       0      28.152000000000001      3.1280000000000001
   254   1      3.1280000000000001      28.152000000000001      3.1280000000000001
   255   1      6.2560000000000002      28.152000000000001      3.1280000000000001
   256   1      9.3840000000000003      28.152000000000001      3.1280000000000001
   257   2                  12.512      28.152000000000001      3.1280000000000001
   258   2      15.640000000000001      28.152000000000001      3.1280000000000001
   259   1      18.768000000000001      28.152000000000001      3.1280000000000001
   260   1      21.896000000000001      28.152000000000001      3.1280000000000001
   261   1      25.024000000000001      28.152000000000001      3.1280000000000001
   262   2      28.152000000000001      28.152000000000001      3.1280000000000001
   263   1      31.280000000000001      28.152000000000001      3.1280000000000001
   264   1      34.408000000000001      28.152000000000001      3.1280000000000001
   265   1                       0      31.280000000000001      3.1280000000000001
   266   2      3.1280000000000001      31.280000000000001      3.1280000000000001
   267   2      6.2560000000000002      31.280000000000001      3.1280000000000001
   268   2      9.3840000000000003      31.280000000000001      3.1280000000000001
   269   1                  12.512      31.280000000000001      3.1280000000000001
   270   2      15.640000000000001      31.280000000000001      3.1280000000000001
   271   1      18.768000000000001      31.280000000000001      3.1280000000000001
   272   1      21.896000000000001      31.280000000000001      3.1280000000000001
   273   2      25.024000000000001      31.280000000000001      3.1280000000000001
   274   1      28.152000000000001      31.280000000000001      3.1280000000000001
   275   1      31.280000000000001      31.280000000000001      3.1280000000000001
   276   1      34.408000000000001      31.280000000000001      3.1280000000000001
   277   1                       0      34.408000000000001      3.1280000000000001
   278   2      3.1280000000000001      34.408000000000001      3.1280000000000001
   279   1      6.2560000000000002      34.408000000000001      3.1280000000000001
   280   1      9.3840000000000003      34.408000000000001      3.1280000000000001
   281   2                  12.512      34.408000000000001      3.1280000000000001
   282   1      15.640000000000001      34.408000000000001      3.1280000000000001
   283   2      18.768000000000001      34.408000000000001      3.1280000000000001
   284   1      21.896000000000001      34.408000000000001      3.1280000000000001
   285   2      25.024000000000001      34.408000000000001      3.1280000000000001
   286   1      28.152000000000001      34.408000000000001      3.1280000000000001
   287   1      31.280000000000001      34.408000000000001      3.1280000000000001
   288   1      34.408000000000001      34.408000000000001      3.1280000000000001
   289   1                       0                       0      6.2560000000000002
   290   1      3.1280000000000001                       0      6.2560000000000002
   291   2      6.2560000000000002                       0      6.2560000000000002
   292   1      9.3840000000000003                       0      6.2560000000000002
   293   1                  12.512                       0      6.2560000000000002
   294   2      15.640000000000001                       0      6.2560000000000002
   295   1      18.768000000000001                       0      6.2560000000000002
   296   2      21.896000000000001                       0      6.2560000000000002
   297   2      25.024000000000001                       0      6.2560000000000002
   298   1      28.152000000000001                       0      6.2560000000000002
   299   2      31.280000000000001                       0      6.2560000000000002
   300   2      34.408000000000001                       0      6.2560000000000002
   301   2                       0      3.1280000000000001      6.2560000000000002
   302   1      3.1280000000000001      3.1280000000000001      6.2560000000000002
   303   1      6.2560000000000002      3.1280000000000001      6.2560000000000002
   304   1      9.3840000000000003      3.1280000000000001      6.2560000000000002
   305   1                  12.512      3.1280000000000001      6.2560000000000002
   306   2      15.640000000000001      3.1280000000000001      6.2560000000000002
   307   1      18.768000000000001      3.1280000000000001      6.2560000000000002
   308   2      21.896000000000001      3.1280000000000001      6.2560000000000002
   309   2      25.024000000000001      3.1280000000000001      6.2560000000000002
   310   2      28.152000000000001      3.1280000000000001      6.2560000000000002
   311   1      31.280000000000001      3.1280000000000001      6.2560000000000002
   312   2      34.408000000000001      3.1280000000000001      6.2560000000000002
   313   1                       0      6.2560000000000002      6.2560000000000002
   314   2      3.1280000000000001      6.2560000000000002      6.2560000000000002
   315   2      6.2560000000000002      6.2560000000000002      6.2560000000000002
   316   2      9.3840000000000003      6.2560000000000002      6.2560000000000002
   317   1                  12.512      6.2560000000000002      6.2560000000000002
   318   1      15.640000000000001      6.2560000000000002      6.2560000000000002
   319   2      18.768000000000001      6.2560000000000002      6.2560000000000002
   320   1      21.896000000000001      6.2560000000000002      6.2560000000000002
   321   2      25.024000000000001      6.2560000000000002      6.2560000000000002
   322   1      28.152000000000001      6.2560000000000002      6.2560000000000002
   323   2      31.280000000000001      6.2560000000000002      6.2560000000000002
   324   2      34.408000000000001      6.2560000000000002      6.2560000000000002
   325   2                       0      9.3840000000000003      6.2560000000000002
   326   2      3.1280000000000001      9.3840000000000003      6.2560000000000002
   327   2      6.2560000000000002      9.3840000000000003      6.2560000000000002
   328   1      9.3840000000000003      9.3840000000000003      6.2560000000000002
   329   1                  12.512      9.3840000000000003      6.2560000000000002
   330   1      15.640000000000001      9.3840000000000003      6.2560000000000002
   331   2      18.768000000000001      9.3840000000000003      6.2560000000000002
   332   2      21.896000000000001      9.3840000000000003      6.2560000000000002
   333   2      25.024000000000001      9.3840000000000003      6.2560000000000002
   334   2      28.152000000000001      9.3840000000000003      6.2560000000000002
   335   2      31.280000000000001      9.3840000000000003      6.2560000000000002
   336   1      34.408000000000001      9.3840000000000003      6.2560000000000002
   337   1                       0                  12.512      6.2560000000000002
   338   2      3.1280000000000001                  12.512      6.2560000000000002
   339   1      6.2560000000000002                  12.512      6.2560000000000002
   340   1      9.3840000000000003                  12.512      6.2560000000000002
   341   2                  12.512                  12.512      6.2560000000000002
   342   1      15.640000000000001                  12.512      6.2560000000000002
   343   1      18.768000000000001                  12.512      6.2560000000000002
   344   2      21.896000000000001                  12.512      6.2560000000000002
   345   1      25.024000000000001                  12.512      6.2560000000000002
   346   1      28.152000000000001                  12.512      6.2560000000000002
   347   2      31.280000000000001                  12.512      6.2560000000000002
   348   1      34.408000000000001                  12.512      6.2560000000000002
   349   2                       0      15.640000000000001      6.2560000000000002
   350   2      3.1280000000000001      15.640000000000001      6.2560000000000002
   351   2      6.2560000000000002      15.640000000000001      6.2560000000000002
   352   1      9.3840000000000003      15.640000000000001      6.2560000000000002
   353   1                  12.512      15.640000000000001      6.2560000000000002
   354   2      15.640000000000001      15.640000000000001      6.2560000000000002
   355   1      18.768000000000001      15.640000000000001      6.2560000000000002
   356   1      21.896000000000001      15.640000000000001      6.2560000000000002
   357   2      25.024000000000001      15.640000000000001      6.2560000000000002
   358   2      28.152000000000001      15.640000000000001      6.2560000000000002
   359   1      31.280000000000001      15.640000000000001      6.2560000000000002