./HEA/HEA_I.lmp (written by ASE) 

3456 	 atoms 
5  atom types
0.0      37.536000000000001  xlo xhi
0.0      37.536000000000001  ylo yhi
0.0      37.536000000000001  zlo zhi


Atoms 

     1   1                       0                       0                       0
     2   2      3.1280000000000001                       0                       0
     3   5      6.2560000000000002                       0                       0
     4   2      9.3840000000000003                       0                       0
     5   5                  12.512                       0                       0
     6   3      15.640000000000001                       0                       0
     7   4      18.768000000000001                       0                       0
     8   3      21.896000000000001                       0                       0
     9   4      25.024000000000001                       0                       0
    10   4      28.152000000000001                       0                       0
    11   2      31.280000000000001                       0                       0
    12   1      34.408000000000001                       0                       0
    13   5                       0      3.1280000000000001                       0
    14   3      3.1280000000000001      3.1280000000000001                       0
    15   1      6.2560000000000002      3.1280000000000001                       0
    16   1      9.3840000000000003      3.1280000000000001                       0
    17   5                  12.512      3.1280000000000001                       0
    18   2      15.640000000000001      3.1280000000000001                       0
    19   4      18.768000000000001      3.1280000000000001                       0
    20   4      21.896000000000001      3.1280000000000001                       0
    21   4      25.024000000000001      3.1280000000000001                       0
    22   3      28.152000000000001      3.1280000000000001                       0
    23   2      31.280000000000001      3.1280000000000001                       0
    24   4      34.408000000000001      3.1280000000000001                       0
    25   5                       0      6.2560000000000002                       0
    26   4      3.1280000000000001      6.2560000000000002                       0
    27   4      6.2560000000000002      6.2560000000000002                       0
    28   3      9.3840000000000003      6.2560000000000002                       0
    29   4                  12.512      6.2560000000000002                       0
    30   3      15.640000000000001      6.2560000000000002                       0
    31   3      18.768000000000001      6.2560000000000002                       0
    32   3      21.896000000000001      6.2560000000000002                       0
    33   4      25.024000000000001      6.2560000000000002                       0
    34   3      28.152000000000001      6.2560000000000002                       0
    35   5      31.280000000000001      6.2560000000000002                       0
    36   1      34.408000000000001      6.2560000000000002                       0
    37   1                       0      9.3840000000000003                       0
    38   2      3.1280000000000001      9.3840000000000003                       0
    39   3      6.2560000000000002      9.3840000000000003                       0
    40   2      9.3840000000000003      9.3840000000000003                       0
    41   3                  12.512      9.3840000000000003                       0
    42   2      15.640000000000001      9.3840000000000003                       0
    43   2      18.768000000000001      9.3840000000000003                       0
    44   3      21.896000000000001      9.3840000000000003                       0
    45   1      25.024000000000001      9.3840000000000003                       0
    46   4      28.152000000000001      9.3840000000000003                       0
    47   5      31.280000000000001      9.3840000000000003                       0
    48   3      34.408000000000001      9.3840000000000003                       0
    49   1                       0                  12.512                       0
    50   5      3.1280000000000001                  12.512                       0
    51   5      6.2560000000000002                  12.512                       0
    52   1      9.3840000000000003                  12.512                       0
    53   4                  12.512                  12.512                       0
    54   5      15.640000000000001                  12.512                       0
    55   2      18.768000000000001                  12.512                       0
    56   1      21.896000000000001                  12.512                       0
    57   1      25.024000000000001                  12.512                       0
    58   1      28.152000000000001                  12.512                       0
    59   3      31.280000000000001                  12.512                       0
    60   4      34.408000000000001                  12.512                       0
    61   1                       0      15.640000000000001                       0
    62   5      3.1280000000000001      15.640000000000001                       0
    63   2      6.2560000000000002      15.640000000000001                       0
    64   5      9.3840000000000003      15.640000000000001                       0
    65   1                  12.512      15.640000000000001                       0
    66   4      15.640000000000001      15.640000000000001                       0
    67   3      18.768000000000001      15.640000000000001                       0
    68   1      21.896000000000001      15.640000000000001                       0
    69   3      25.024000000000001      15.640000000000001                       0
    70   1      28.152000000000001      15.640000000000001                       0
    71   3      31.280000000000001      15.640000000000001                       0
    72   3      34.408000000000001      15.640000000000001                       0
    73   3                       0      18.768000000000001                       0
    74   2      3.1280000000000001      18.768000000000001                       0
    75   2      6.2560000000000002      18.768000000000001                       0
    76   4      9.3840000000000003      18.768000000000001                       0
    77   2                  12.512      18.768000000000001                       0
    78   2      15.640000000000001      18.768000000000001                       0
    79   3      18.768000000000001      18.768000000000001                       0
    80   1      21.896000000000001      18.768000000000001                       0
    81   4      25.024000000000001      18.768000000000001                       0
    82   4      28.152000000000001      18.768000000000001                       0
    83   2      31.280000000000001      18.768000000000001                       0
    84   3      34.408000000000001      18.768000000000001                       0
    85   2                       0      21.896000000000001                       0
    86   2      3.1280000000000001      21.896000000000001                       0
    87   1      6.2560000000000002      21.896000000000001                       0
    88   5      9.3840000000000003      21.896000000000001                       0
    89   2                  12.512      21.896000000000001                       0
    90   3      15.640000000000001      21.896000000000001                       0
    91   2      18.768000000000001      21.896000000000001                       0
    92   5      21.896000000000001      21.896000000000001                       0
    93   5      25.024000000000001      21.896000000000001                       0
    94   3      28.152000000000001      21.896000000000001                       0
    95   4      31.280000000000001      21.896000000000001                       0
    96   1      34.408000000000001      21.896000000000001                       0
    97   4                       0      25.024000000000001                       0
    98   5      3.1280000000000001      25.024000000000001                       0
    99   2      6.2560000000000002      25.024000000000001                       0
   100   3      9.3840000000000003      25.024000000000001                       0
   101   3                  12.512      25.024000000000001                       0
   102   1      15.640000000000001      25.024000000000001                       0
   103   4      18.768000000000001      25.024000000000001                       0
   104   3      21.896000000000001      25.024000000000001                       0
   105   3      25.024000000000001      25.024000000000001                       0
   106   3      28.152000000000001      25.024000000000001                       0
   107   3      31.280000000000001      25.024000000000001                       0
   108   1      34.408000000000001      25.024000000000001                       0
   109   3                       0      28.152000000000001                       0
   110   2      3.1280000000000001      28.152000000000001                       0
   111   3      6.2560000000000002      28.152000000000001                       0
   112   3      9.3840000000000003      28.152000000000001                       0
   113   5                  12.512      28.152000000000001                       0
   114   4      15.640000000000001      28.152000000000001                       0
   115   4      18.768000000000001      28.152000000000001                       0
   116   4      21.896000000000001      28.152000000000001                       0
   117   3      25.024000000000001      28.152000000000001                       0
   118   3      28.152000000000001      28.152000000000001                       0
   119   3      31.280000000000001      28.152000000000001                       0
   120   3      34.408000000000001      28.152000000000001                       0
   121   1                       0      31.280000000000001                       0
   122   1      3.1280000000000001      31.280000000000001                       0
   123   4      6.2560000000000002      31.280000000000001                       0
   124   1      9.3840000000000003      31.280000000000001                       0
   125   4                  12.512      31.280000000000001                       0
   126   2      15.640000000000001      31.280000000000001                       0
   127   3      18.768000000000001      31.280000000000001                       0
   128   2      21.896000000000001      31.280000000000001                       0
   129   3      25.024000000000001      31.280000000000001                       0
   130   3      28.152000000000001      31.280000000000001                       0
   131   2      31.280000000000001      31.280000000000001                       0
   132   5      34.408000000000001      31.280000000000001                       0
   133   5                       0      34.408000000000001                       0
   134   3      3.1280000000000001      34.408000000000001                       0
   135   5      6.2560000000000002      34.408000000000001                       0
   136   2      9.3840000000000003      34.408000000000001                       0
   137   5                  12.512      34.408000000000001                       0
   138   4      15.640000000000001      34.408000000000001                       0
   139   5      18.768000000000001      34.408000000000001                       0
   140   1      21.896000000000001      34.408000000000001                       0
   141   3      25.024000000000001      34.408000000000001                       0
   142   1      28.152000000000001      34.408000000000001                       0
   143   1      31.280000000000001      34.408000000000001                       0
   144   4      34.408000000000001      34.408000000000001                       0
   145   5                       0                       0      3.1280000000000001
   146   3      3.1280000000000001                       0      3.1280000000000001
   147   1      6.2560000000000002                       0      3.1280000000000001
   148   4      9.3840000000000003                       0      3.1280000000000001
   149   1                  12.512                       0      3.1280000000000001
   150   1      15.640000000000001                       0      3.1280000000000001
   151   1      18.768000000000001                       0      3.1280000000000001
   152   2      21.896000000000001                       0      3.1280000000000001
   153   2      25.024000000000001                       0      3.1280000000000001
   154   3      28.152000000000001                       0      3.1280000000000001
   155   1      31.280000000000001                       0      3.1280000000000001
   156   3      34.408000000000001                       0      3.1280000000000001
   157   5                       0      3.1280000000000001      3.1280000000000001
   158   2      3.1280000000000001      3.1280000000000001      3.1280000000000001
   159   2      6.2560000000000002      3.1280000000000001      3.1280000000000001
   160   2      9.3840000000000003      3.1280000000000001      3.1280000000000001
   161   1                  12.512      3.1280000000000001      3.1280000000000001
   162   1      15.640000000000001      3.1280000000000001      3.1280000000000001
   163   4      18.768000000000001      3.1280000000000001      3.1280000000000001
   164   5      21.896000000000001      3.1280000000000001      3.1280000000000001
   165   4      25.024000000000001      3.1280000000000001      3.1280000000000001
   166   4      28.152000000000001      3.1280000000000001      3.1280000000000001
   167   3      31.280000000000001      3.1280000000000001      3.1280000000000001
   168   4      34.408000000000001      3.1280000000000001      3.1280000000000001
   169   3                       0      6.2560000000000002      3.1280000000000001
   170   4      3.1280000000000001      6.2560000000000002      3.1280000000000001
   171   5      6.2560000000000002      6.2560000000000002      3.1280000000000001
   172   2      9.3840000000000003      6.2560000000000002      3.1280000000000001
   173   3                  12.512      6.2560000000000002      3.1280000000000001
   174   3      15.640000000000001      6.2560000000000002      3.1280000000000001
   175   3      18.768000000000001      6.2560000000000002      3.1280000000000001
   176   3      21.896000000000001      6.2560000000000002      3.1280000000000001
   177   2      25.024000000000001      6.2560000000000002      3.1280000000000001
   178   1      28.152000000000001      6.2560000000000002      3.1280000000000001
   179   3      31.280000000000001      6.2560000000000002      3.1280000000000001
   180   5      34.408000000000001      6.2560000000000002      3.1280000000000001
   181   4                       0      9.3840000000000003      3.1280000000000001
   182   3      3.1280000000000001      9.3840000000000003      3.1280000000000001
   183   1      6.2560000000000002      9.3840000000000003      3.1280000000000001
   184   4      9.3840000000000003      9.3840000000000003      3.1280000000000001
   185   1                  12.512      9.3840000000000003      3.1280000000000001
   186   5      15.640000000000001      9.3840000000000003      3.1280000000000001
   187   2      18.768000000000001      9.3840000000000003      3.1280000000000001
   188   1      21.896000000000001      9.3840000000000003      3.1280000000000001
   189   3      25.024000000000001      9.3840000000000003      3.1280000000000001
   190   4      28.152000000000001      9.3840000000000003      3.1280000000000001
   191   1      31.280000000000001      9.3840000000000003      3.1280000000000001
   192   3      34.408000000000001      9.3840000000000003      3.1280000000000001
   193   3                       0                  12.512      3.1280000000000001
   194   2      3.1280000000000001                  12.512      3.1280000000000001
   195   2      6.2560000000000002                  12.512      3.1280000000000001
   196   1      9.3840000000000003                  12.512      3.1280000000000001
   197   3                  12.512                  12.512      3.1280000000000001
   198   1      15.640000000000001                  12.512      3.1280000000000001
   199   2      18.768000000000001                  12.512      3.1280000000000001
   200   2      21.896000000000001                  12.512      3.1280000000000001
   201   1      25.024000000000001                  12.512      3.1280000000000001
   202   5      28.152000000000001                  12.512      3.1280000000000001
   203   2      31.280000000000001                  12.512      3.1280000000000001
   204   5      34.408000000000001                  12.512      3.1280000000000001
   205   1                       0      15.640000000000001      3.1280000000000001
   206   2      3.1280000000000001      15.640000000000001      3.1280000000000001
   207   1      6.2560000000000002      15.640000000000001      3.1280000000000001
   208   4      9.3840000000000003      15.640000000000001      3.1280000000000001
   209   4                  12.512      15.640000000000001      3.1280000000000001
   210   4      15.640000000000001      15.640000000000001      3.1280000000000001
   211   4      18.768000000000001      15.640000000000001      3.1280000000000001
   212   5      21.896000000000001      15.640000000000001      3.1280000000000001
   213   1      25.024000000000001      15.640000000000001      3.1280000000000001
   214   3      28.152000000000001      15.640000000000001      3.1280000000000001
   215   3      31.280000000000001      15.640000000000001      3.1280000000000001
   216   5      34.408000000000001      15.640000000000001      3.1280000000000001
   217   3                       0      18.768000000000001      3.1280000000000001
   218   2      3.1280000000000001      18.768000000000001      3.1280000000000001
   219   4      6.2560000000000002      18.768000000000001      3.1280000000000001
   220   4      9.3840000000000003      18.768000000000001      3.1280000000000001
   221   3                  12.512      18.768000000000001      3.1280000000000001
   222   4      15.640000000000001      18.768000000000001      3.1280000000000001
   223   2      18.768000000000001      18.768000000000001      3.1280000000000001
   224   3      21.896000000000001      18.768000000000001      3.1280000000000001
   225   5      25.024000000000001      18.768000000000001      3.1280000000000001
   226   5      28.152000000000001      18.768000000000001      3.1280000000000001
   227   5      31.280000000000001      18.768000000000001      3.1280000000000001
   228   1      34.408000000000001      18.768000000000001      3.1280000000000001
   229   2                       0      21.896000000000001      3.1280000000000001
   230   3      3.1280000000000001      21.896000000000001      3.1280000000000001
   231   4      6.2560000000000002      21.896000000000001      3.1280000000000001
   232   5      9.3840000000000003      21.896000000000001      3.1280000000000001
   233   2                  12.512      21.896000000000001      3.1280000000000001
   234   4      15.640000000000001      21.896000000000001      3.1280000000000001
   235   2      18.768000000000001      21.896000000000001      3.1280000000000001
   236   1      21.896000000000001      21.896000000000001      3.1280000000000001
   237   1      25.024000000000001      21.896000000000001      3.1280000000000001
   238   5      28.152000000000001      21.896000000000001      3.1280000000000001
   239   4      31.280000000000001      21.896000000000001      3.1280000000000001
   240   4      34.408000000000001      21.896000000000001      3.1280000000000001
   241   5                       0      25.024000000000001      3.1280000000000001
   242   1      3.1280000000000001      25.024000000000001      3.1280000000000001
   243   1      6.2560000000000002      25.024000000000001      3.1280000000000001
   244   1      9.3840000000000003      25.024000000000001      3.1280000000000001
   245   4                  12.512      25.024000000000001      3.1280000000000001
   246   1      15.640000000000001      25.024000000000001      3.1280000000000001
   247   4      18.768000000000001      25.024000000000001      3.1280000000000001
   248   5      21.896000000000001      25.024000000000001      3.1280000000000001
   249   2      25.024000000000001      25.024000000000001      3.1280000000000001
   250   3      28.152000000000001      25.024000000000001      3.1280000000000001
   251   5      31.280000000000001      25.024000000000001      3.1280000000000001
   252   3      34.408000000000001      25.024000000000001      3.1280000000000001
   253   5                       0      28.152000000000001      3.1280000000000001
   254   5      3.1280000000000001      28.152000000000001      3.1280000000000001
   255   5      6.2560000000000002      28.152000000000001      3.1280000000000001
   256   1      9.3840000000000003      28.152000000000001      3.1280000000000001
   257   3                  12.512      28.152000000000001      3.1280000000000001
   258   2      15.640000000000001      28.152000000000001      3.1280000000000001
   259   3      18.768000000000001      28.152000000000001      3.1280000000000001
   260   5      21.896000000000001      28.152000000000001      3.1280000000000001
   261   5      25.024000000000001      28.152000000000001      3.1280000000000001
   262   5      28.152000000000001      28.152000000000001      3.1280000000000001
   263   5      31.280000000000001      28.152000000000001      3.1280000000000001
   264   4      34.408000000000001      28.152000000000001      3.1280000000000001
   265   3                       0      31.280000000000001      3.1280000000000001
   266   1      3.1280000000000001      31.280000000000001      3.1280000000000001
   267   1      6.2560000000000002      31.280000000000001      3.1280000000000001
   268   3      9.3840000000000003      31.280000000000001      3.1280000000000001
   269   3                  12.512      31.280000000000001      3.1280000000000001
   270   1      15.640000000000001      31.280000000000001      3.1280000000000001
   271   5      18.768000000000001      31.280000000000001      3.1280000000000001
   272   3      21.896000000000001      31.280000000000001      3.1280000000000001
   273   3      25.024000000000001      31.280000000000001      3.1280000000000001
   274   3      28.152000000000001      31.280000000000001      3.1280000000000001
   275   4      31.280000000000001      31.280000000000001      3.1280000000000001
   276   2      34.408000000000001      31.280000000000001      3.1280000000000001
   277   2                       0      34.408000000000001      3.1280000000000001
   278   2      3.1280000000000001      34.408000000000001      3.1280000000000001
   279   3      6.2560000000000002      34.408000000000001      3.1280000000000001
   280   5      9.3840000000000003      34.408000000000001      3.1280000000000001
   281   3                  12.512      34.408000000000001      3.1280000000000001
   282   1      15.640000000000001      34.408000000000001      3.1280000000000001
   283   5      18.768000000000001      34.408000000000001      3.1280000000000001
   284   2      21.896000000000001      34.408000000000001      3.1280000000000001
   285   4      25.024000000000001      34.408000000000001      3.1280000000000001
   286   5      28.152000000000001      34.408000000000001      3.1280000000000001
   287   3      31.280000000000001      34.408000000000001      3.1280000000000001
   288   5      34.408000000000001      34.408000000000001      3.1280000000000001
   289   5                       0                       0      6.2560000000000002
   290   4      3.1280000000000001                       0      6.2560000000000002
   291   4      6.2560000000000002                       0      6.2560000000000002
   292   4      9.3840000000000003                       0      6.2560000000000002
   293   5                  12.512                       0      6.2560000000000002
   294   4      15.640000000000001                       0      6.2560000000000002
   295   1      18.768000000000001                       0      6.2560000000000002
   296   3      21.896000000000001                       0      6.2560000000000002
   297   3      25.024000000000001                       0      6.2560000000000002
   298   1      28.152000000000001                       0      6.2560000000000002
   299   2      31.280000000000001                       0      6.2560000000000002
   300   1      34.408000000000001                       0      6.2560000000000002
   301   2                       0      3.1280000000000001      6.2560000000000002
   302   2      3.1280000000000001      3.1280000000000001      6.2560000000000002
   303   4      6.2560000000000002      3.1280000000000001      6.2560000000000002
   304   4      9.3840000000000003      3.1280000000000001      6.2560000000000002
   305   3                  12.512      3.1280000000000001      6.2560000000000002
   306   3      15.640000000000001      3.1280000000000001      6.2560000000000002
   307   1      18.768000000000001      3.1280000000000001      6.2560000000000002
   308   3      21.896000000000001      3.1280000000000001      6.2560000000000002
   309   5      25.024000000000001      3.1280000000000001      6.2560000000000002
   310   3      28.152000000000001      3.1280000000000001      6.2560000000000002
   311   4      31.280000000000001      3.1280000000000001      6.2560000000000002
   312   1      34.408000000000001      3.1280000000000001      6.2560000000000002
   313   3                       0      6.2560000000000002      6.2560000000000002
   314   3      3.1280000000000001      6.2560000000000002      6.2560000000000002
   315   1      6.2560000000000002      6.2560000000000002      6.2560000000000002
   316   4      9.3840000000000003      6.2560000000000002      6.2560000000000002
   317   1                  12.512      6.2560000000000002      6.2560000000000002
   318   4      15.640000000000001      6.2560000000000002      6.2560000000000002
   319   4      18.768000000000001      6.2560000000000002      6.2560000000000002
   320   1      21.896000000000001      6.2560000000000002      6.2560000000000002
   321   5      25.024000000000001      6.2560000000000002      6.2560000000000002
   322   3      28.152000000000001      6.2560000000000002      6.2560000000000002
   323   3      31.280000000000001      6.2560000000000002      6.2560000000000002
   324   5      34.408000000000001      6.2560000000000002      6.2560000000000002
   325   3                       0      9.3840000000000003      6.2560000000000002
   326   5      3.1280000000000001      9.3840000000000003      6.2560000000000002
   327   1      6.2560000000000002      9.3840000000000003      6.2560000000000002
   328   3      9.3840000000000003      9.3840000000000003      6.2560000000000002
   329   5                  12.512      9.3840000000000003      6.2560000000000002
   330   5      15.640000000000001      9.3840000000000003      6.2560000000000002
   331   3      18.768000000000001      9.3840000000000003      6.2560000000000002
   332   3      21.896000000000001      9.3840000000000003      6.2560000000000002
   333   2      25.024000000000001      9.3840000000000003      6.2560000000000002
   334   4      28.152000000000001      9.3840000000000003      6.2560000000000002
   335   1      31.280000000000001      9.3840000000000003      6.2560000000000002
   336   3      34.408000000000001      9.3840000000000003      6.2560000000000002
   337   1                       0                  12.512      6.2560000000000002
   338   5      3.1280000000000001                  12.512      6.2560000000000002
   339   3      6.2560000000000002                  12.512      6.2560000000000002
   340   5      9.3840000000000003                  12.512      6.2560000000000002
   341   1                  12.512                  12.512      6.2560000000000002
   342   5      15.640000000000001                  12.512      6.2560000000000002
   343   1      18.768000000000001                  12.512      6.2560000000000002
   344   1      21.896000000000001                  12.512      6.2560000000000002
   345   2      25.024000000000001                  12.512      6.2560000000000002
   346   4      28.152000000000001                  12.512      6.2560000000000002
   347   5      31.280000000000001                  12.512      6.2560000000000002
   348   1      34.408000000000001                  12.512      6.2560000000000002
   349   1                       0      15.640000000000001      6.2560000000000002
   350   3      3.1280000000000001      15.640000000000001      6.2560000000000002
   351   2      6.2560000000000002      15.640000000000001      6.2560000000000002
   352   4      9.3840000000000003      15.640000000000001      6.2560000000000002
   353   4                  12.512      15.640000000000001      6.2560000000000002
   354   4      15.640000000000001      15.640000000000001      6.2560000000000002
   355   4      18.768000000000001      15.640000000000001      6.2560000000000002
   356   3      21.896000000000001      15.640000000000001      6.2560000000000002
   357   3      25.024000000000001      15.640000000000001      6.2560000000000002
   358   2      28.152000000000001      15.640000000000001      6.2560000000000002
   359   4      31.280000000000001      15.640000000000001      6.2560000000000002