./HEA/HEA_II.lmp (written by ASE) 

3456 	 atoms 
5  atom types
0.0      37.536000000000001  xlo xhi
0.0      37.536000000000001  ylo yhi
0.0      37.536000000000001  zlo zhi


Atoms 

     1   3                       0                       0                       0
     2   3      3.1280000000000001                       0                       0
     3   5      6.2560000000000002                       0                       0
     4   3      9.3840000000000003                       0                       0
     5   3                  12.512                       0                       0
     6   1      15.640000000000001                       0                       0
     7   3      18.768000000000001                       0                       0
     8   1      21.896000000000001                       0                       0
     9   3      25.024000000000001                       0                       0
    10   5      28.152000000000001                       0                       0
    11   1      31.280000000000001                       0                       0
    12   3      34.408000000000001                       0                       0
    13   5                       0      3.1280000000000001                       0
    14   5      3.1280000000000001      3.1280000000000001                       0
    15   3      6.2560000000000002      3.1280000000000001                       0
    16   5      9.3840000000000003      3.1280000000000001                       0
    17   3                  12.512      3.1280000000000001                       0
    18   3      15.640000000000001      3.1280000000000001                       0
    19   1      18.768000000000001      3.1280000000000001                       0
    20   1      21.896000000000001      3.1280000000000001                       0
    21   1      25.024000000000001      3.1280000000000001                       0
    22   3      28.152000000000001      3.1280000000000001                       0
    23   1      31.280000000000001      3.1280000000000001                       0
    24   1      34.408000000000001      3.1280000000000001                       0
    25   3                       0      6.2560000000000002                       0
    26   3      3.1280000000000001      6.2560000000000002                       0
    27   3      6.2560000000000002      6.2560000000000002                       0
    28   3      9.3840000000000003      6.2560000000000002                       0
    29   3                  12.512      6.2560000000000002                       0
    30   3      15.640000000000001      6.2560000000000002                       0
    31   1      18.768000000000001      6.2560000000000002                       0
    32   1      21.896000000000001      6.2560000000000002                       0
    33   5      25.024000000000001      6.2560000000000002                       0
    34   5      28.152000000000001      6.2560000000000002                       0
    35   3      31.280000000000001      6.2560000000000002                       0
    36   1      34.408000000000001      6.2560000000000002                       0
    37   1                       0      9.3840000000000003                       0
    38   1      3.1280000000000001      9.3840000000000003                       0
    39   1      6.2560000000000002      9.3840000000000003                       0
    40   1      9.3840000000000003      9.3840000000000003                       0
    41   1                  12.512      9.3840000000000003                       0
    42   3      15.640000000000001      9.3840000000000003                       0
    43   3      18.768000000000001      9.3840000000000003                       0
    44   3      21.896000000000001      9.3840000000000003                       0
    45   3      25.024000000000001      9.3840000000000003                       0
    46   3      28.152000000000001      9.3840000000000003                       0
    47   1      31.280000000000001      9.3840000000000003                       0
    48   3      34.408000000000001      9.3840000000000003                       0
    49   1                       0                  12.512                       0
    50   3      3.1280000000000001                  12.512                       0
    51   3      6.2560000000000002                  12.512                       0
    52   1      9.3840000000000003                  12.512                       0
    53   1                  12.512                  12.512                       0
    54   1      15.640000000000001                  12.512                       0
    55   1      18.768000000000001                  12.512                       0
    56   1      21.896000000000001                  12.512                       0
    57   5      25.024000000000001                  12.512                       0
    58   3      28.152000000000001                  12.512                       0
    59   1      31.280000000000001                  12.512                       0
    60   1      34.408000000000001                  12.512                       0
    61   1                       0      15.640000000000001                       0
    62   1      3.1280000000000001      15.640000000000001                       0
    63   3      6.2560000000000002      15.640000000000001                       0
    64   1      9.3840000000000003      15.640000000000001                       0
    65   3                  12.512      15.640000000000001                       0
    66   1      15.640000000000001      15.640000000000001                       0
    67   1      18.768000000000001      15.640000000000001                       0
    68   3      21.896000000000001      15.640000000000001                       0
    69   1      25.024000000000001      15.640000000000001                       0
    70   1      28.152000000000001      15.640000000000001                       0
    71   3      31.280000000000001      15.640000000000001                       0
    72   5      34.408000000000001      15.640000000000001                       0
    73   1                       0      18.768000000000001                       0
    74   3      3.1280000000000001      18.768000000000001                       0
    75   1      6.2560000000000002      18.768000000000001                       0
    76   1      9.3840000000000003      18.768000000000001                       0
    77   3                  12.512      18.768000000000001                       0
    78   1      15.640000000000001      18.768000000000001                       0
    79   1      18.768000000000001      18.768000000000001                       0
    80   3      21.896000000000001      18.768000000000001                       0
    81   3      25.024000000000001      18.768000000000001                       0
    82   3      28.152000000000001      18.768000000000001                       0
    83   3      31.280000000000001      18.768000000000001                       0
    84   3      34.408000000000001      18.768000000000001                       0
    85   1                       0      21.896000000000001                       0
    86   5      3.1280000000000001      21.896000000000001                       0
    87   3      6.2560000000000002      21.896000000000001                       0
    88   1      9.3840000000000003      21.896000000000001                       0
    89   1                  12.512      21.896000000000001                       0
    90   3      15.640000000000001      21.896000000000001                       0
    91   3      18.768000000000001      21.896000000000001                       0
    92   1      21.896000000000001      21.896000000000001                       0
    93   1      25.024000000000001      21.896000000000001                       0
    94   1      28.152000000000001      21.896000000000001                       0
    95   1      31.280000000000001      21.896000000000001                       0
    96   3      34.408000000000001      21.896000000000001                       0
    97   5                       0      25.024000000000001                       0
    98   3      3.1280000000000001      25.024000000000001                       0
    99   3      6.2560000000000002      25.024000000000001                       0
   100   3      9.3840000000000003      25.024000000000001                       0
   101   3                  12.512      25.024000000000001                       0
   102   1      15.640000000000001      25.024000000000001                       0
   103   1      18.768000000000001      25.024000000000001                       0
   104   1      21.896000000000001      25.024000000000001                       0
   105   1      25.024000000000001      25.024000000000001                       0
   106   5      28.152000000000001      25.024000000000001                       0
   107   1      31.280000000000001      25.024000000000001                       0
   108   1      34.408000000000001      25.024000000000001                       0
   109   3                       0      28.152000000000001                       0
   110   3      3.1280000000000001      28.152000000000001                       0
   111   3      6.2560000000000002      28.152000000000001                       0
   112   3      9.3840000000000003      28.152000000000001                       0
   113   3                  12.512      28.152000000000001                       0
   114   3      15.640000000000001      28.152000000000001                       0
   115   3      18.768000000000001      28.152000000000001                       0
   116   3      21.896000000000001      28.152000000000001                       0
   117   1      25.024000000000001      28.152000000000001                       0
   118   1      28.152000000000001      28.152000000000001                       0
   119   3      31.280000000000001      28.152000000000001                       0
   120   1      34.408000000000001      28.152000000000001                       0
   121   3                       0      31.280000000000001                       0
   122   3      3.1280000000000001      31.280000000000001                       0
   123   1      6.2560000000000002      31.280000000000001                       0
   124   5      9.3840000000000003      31.280000000000001                       0
   125   3                  12.512      31.280000000000001                       0
   126   1      15.640000000000001      31.280000000000001                       0
   127   1      18.768000000000001      31.280000000000001                       0
   128   5      21.896000000000001      31.280000000000001                       0
   129   1      25.024000000000001      31.280000000000001                       0
   130   1      28.152000000000001      31.280000000000001                       0
   131   1      31.280000000000001      31.280000000000001                       0
   132   3      34.408000000000001      31.280000000000001                       0
   133   3                       0      34.408000000000001                       0
   134   3      3.1280000000000001      34.408000000000001                       0
   135   3      6.2560000000000002      34.408000000000001                       0
   136   1      9.3840000000000003      34.408000000000001                       0
   137   3                  12.512      34.408000000000001                       0
   138   3      15.640000000000001      34.408000000000001                       0
   139   3      18.768000000000001      34.408000000000001                       0
   140   3      21.896000000000001      34.408000000000001                       0
   141   1      25.024000000000001      34.408000000000001                       0
   142   1      28.152000000000001      34.408000000000001                       0
   143   3      31.280000000000001      34.408000000000001                       0
   144   3      34.408000000000001      34.408000000000001                       0
   145   1                       0                       0      3.1280000000000001
   146   1      3.1280000000000001                       0      3.1280000000000001
   147   3      6.2560000000000002                       0      3.1280000000000001
   148   3      9.3840000000000003                       0      3.1280000000000001
   149   3                  12.512                       0      3.1280000000000001
   150   1      15.640000000000001                       0      3.1280000000000001
   151   5      18.768000000000001                       0      3.1280000000000001
   152   3      21.896000000000001                       0      3.1280000000000001
   153   3      25.024000000000001                       0      3.1280000000000001
   154   1      28.152000000000001                       0      3.1280000000000001
   155   1      31.280000000000001                       0      3.1280000000000001
   156   3      34.408000000000001                       0      3.1280000000000001
   157   5                       0      3.1280000000000001      3.1280000000000001
   158   1      3.1280000000000001      3.1280000000000001      3.1280000000000001
   159   5      6.2560000000000002      3.1280000000000001      3.1280000000000001
   160   1      9.3840000000000003      3.1280000000000001      3.1280000000000001
   161   1                  12.512      3.1280000000000001      3.1280000000000001
   162   1      15.640000000000001      3.1280000000000001      3.1280000000000001
   163   3      18.768000000000001      3.1280000000000001      3.1280000000000001
   164   1      21.896000000000001      3.1280000000000001      3.1280000000000001
   165   3      25.024000000000001      3.1280000000000001      3.1280000000000001
   166   3      28.152000000000001      3.1280000000000001      3.1280000000000001
   167   3      31.280000000000001      3.1280000000000001      3.1280000000000001
   168   1      34.408000000000001      3.1280000000000001      3.1280000000000001
   169   3                       0      6.2560000000000002      3.1280000000000001
   170   5      3.1280000000000001      6.2560000000000002      3.1280000000000001
   171   1      6.2560000000000002      6.2560000000000002      3.1280000000000001
   172   1      9.3840000000000003      6.2560000000000002      3.1280000000000001
   173   3                  12.512      6.2560000000000002      3.1280000000000001
   174   5      15.640000000000001      6.2560000000000002      3.1280000000000001
   175   1      18.768000000000001      6.2560000000000002      3.1280000000000001
   176   5      21.896000000000001      6.2560000000000002      3.1280000000000001
   177   3      25.024000000000001      6.2560000000000002      3.1280000000000001
   178   3      28.152000000000001      6.2560000000000002      3.1280000000000001
   179   3      31.280000000000001      6.2560000000000002      3.1280000000000001
   180   1      34.408000000000001      6.2560000000000002      3.1280000000000001
   181   1                       0      9.3840000000000003      3.1280000000000001
   182   1      3.1280000000000001      9.3840000000000003      3.1280000000000001
   183   3      6.2560000000000002      9.3840000000000003      3.1280000000000001
   184   3      9.3840000000000003      9.3840000000000003      3.1280000000000001
   185   5                  12.512      9.3840000000000003      3.1280000000000001
   186   1      15.640000000000001      9.3840000000000003      3.1280000000000001
   187   1      18.768000000000001      9.3840000000000003      3.1280000000000001
   188   5      21.896000000000001      9.3840000000000003      3.1280000000000001
   189   1      25.024000000000001      9.3840000000000003      3.1280000000000001
   190   1      28.152000000000001      9.3840000000000003      3.1280000000000001
   191   1      31.280000000000001      9.3840000000000003      3.1280000000000001
   192   1      34.408000000000001      9.3840000000000003      3.1280000000000001
   193   1                       0                  12.512      3.1280000000000001
   194   3      3.1280000000000001                  12.512      3.1280000000000001
   195   3      6.2560000000000002                  12.512      3.1280000000000001
   196   1      9.3840000000000003                  12.512      3.1280000000000001
   197   3                  12.512                  12.512      3.1280000000000001
   198   3      15.640000000000001                  12.512      3.1280000000000001
   199   1      18.768000000000001                  12.512      3.1280000000000001
   200   3      21.896000000000001                  12.512      3.1280000000000001
   201   5      25.024000000000001                  12.512      3.1280000000000001
   202   5      28.152000000000001                  12.512      3.1280000000000001
   203   3      31.280000000000001                  12.512      3.1280000000000001
   204   1      34.408000000000001                  12.512      3.1280000000000001
   205   3                       0      15.640000000000001      3.1280000000000001
   206   1      3.1280000000000001      15.640000000000001      3.1280000000000001
   207   3      6.2560000000000002      15.640000000000001      3.1280000000000001
   208   3      9.3840000000000003      15.640000000000001      3.1280000000000001
   209   1                  12.512      15.640000000000001      3.1280000000000001
   210   1      15.640000000000001      15.640000000000001      3.1280000000000001
   211   1      18.768000000000001      15.640000000000001      3.1280000000000001
   212   1      21.896000000000001      15.640000000000001      3.1280000000000001
   213   1      25.024000000000001      15.640000000000001      3.1280000000000001
   214   1      28.152000000000001      15.640000000000001      3.1280000000000001
   215   3      31.280000000000001      15.640000000000001      3.1280000000000001
   216   5      34.408000000000001      15.640000000000001      3.1280000000000001
   217   3                       0      18.768000000000001      3.1280000000000001
   218   3      3.1280000000000001      18.768000000000001      3.1280000000000001
   219   1      6.2560000000000002      18.768000000000001      3.1280000000000001
   220   1      9.3840000000000003      18.768000000000001      3.1280000000000001
   221   3                  12.512      18.768000000000001      3.1280000000000001
   222   1      15.640000000000001      18.768000000000001      3.1280000000000001
   223   3      18.768000000000001      18.768000000000001      3.1280000000000001
   224   3      21.896000000000001      18.768000000000001      3.1280000000000001
   225   3      25.024000000000001      18.768000000000001      3.1280000000000001
   226   5      28.152000000000001      18.768000000000001      3.1280000000000001
   227   1      31.280000000000001      18.768000000000001      3.1280000000000001
   228   1      34.408000000000001      18.768000000000001      3.1280000000000001
   229   3                       0      21.896000000000001      3.1280000000000001
   230   1      3.1280000000000001      21.896000000000001      3.1280000000000001
   231   5      6.2560000000000002      21.896000000000001      3.1280000000000001
   232   1      9.3840000000000003      21.896000000000001      3.1280000000000001
   233   1                  12.512      21.896000000000001      3.1280000000000001
   234   1      15.640000000000001      21.896000000000001      3.1280000000000001
   235   3      18.768000000000001      21.896000000000001      3.1280000000000001
   236   1      21.896000000000001      21.896000000000001      3.1280000000000001
   237   1      25.024000000000001      21.896000000000001      3.1280000000000001
   238   1      28.152000000000001      21.896000000000001      3.1280000000000001
   239   1      31.280000000000001      21.896000000000001      3.1280000000000001
   240   1      34.408000000000001      21.896000000000001      3.1280000000000001
   241   1                       0      25.024000000000001      3.1280000000000001
   242   3      3.1280000000000001      25.024000000000001      3.1280000000000001
   243   1      6.2560000000000002      25.024000000000001      3.1280000000000001
   244   1      9.3840000000000003      25.024000000000001      3.1280000000000001
   245   1                  12.512      25.024000000000001      3.1280000000000001
   246   1      15.640000000000001      25.024000000000001      3.1280000000000001
   247   3      18.768000000000001      25.024000000000001      3.1280000000000001
   248   1      21.896000000000001      25.024000000000001      3.1280000000000001
   249   5      25.024000000000001      25.024000000000001      3.1280000000000001
   250   1      28.152000000000001      25.024000000000001      3.1280000000000001
   251   1      31.280000000000001      25.024000000000001      3.1280000000000001
   252   3      34.408000000000001      25.024000000000001      3.1280000000000001
   253   1                       0      28.152000000000001      3.1280000000000001
   254   3      3.1280000000000001      28.152000000000001      3.1280000000000001
   255   1      6.2560000000000002      28.152000000000001      3.1280000000000001
   256   3      9.3840000000000003      28.152000000000001      3.1280000000000001
   257   1                  12.512      28.152000000000001      3.1280000000000001
   258   3      15.640000000000001      28.152000000000001      3.1280000000000001
   259   3      18.768000000000001      28.152000000000001      3.1280000000000001
   260   1      21.896000000000001      28.152000000000001      3.1280000000000001
   261   3      25.024000000000001      28.152000000000001      3.1280000000000001
   262   1      28.152000000000001      28.152000000000001      3.1280000000000001
   263   3      31.280000000000001      28.152000000000001      3.1280000000000001
   264   5      34.408000000000001      28.152000000000001      3.1280000000000001
   265   1                       0      31.280000000000001      3.1280000000000001
   266   1      3.1280000000000001      31.280000000000001      3.1280000000000001
   267   5      6.2560000000000002      31.280000000000001      3.1280000000000001
   268   1      9.3840000000000003      31.280000000000001      3.1280000000000001
   269   1                  12.512      31.280000000000001      3.1280000000000001
   270   3      15.640000000000001      31.280000000000001      3.1280000000000001
   271   3      18.768000000000001      31.280000000000001      3.1280000000000001
   272   3      21.896000000000001      31.280000000000001      3.1280000000000001
   273   1      25.024000000000001      31.280000000000001      3.1280000000000001
   274   3      28.152000000000001      31.280000000000001      3.1280000000000001
   275   3      31.280000000000001      31.280000000000001      3.1280000000000001
   276   3      34.408000000000001      31.280000000000001      3.1280000000000001
   277   3                       0      34.408000000000001      3.1280000000000001
   278   3      3.1280000000000001      34.408000000000001      3.1280000000000001
   279   1      6.2560000000000002      34.408000000000001      3.1280000000000001
   280   5      9.3840000000000003      34.408000000000001      3.1280000000000001
   281   3                  12.512      34.408000000000001      3.1280000000000001
   282   1      15.640000000000001      34.408000000000001      3.1280000000000001
   283   1      18.768000000000001      34.408000000000001      3.1280000000000001
   284   1      21.896000000000001      34.408000000000001      3.1280000000000001
   285   3      25.024000000000001      34.408000000000001      3.1280000000000001
   286   3      28.152000000000001      34.408000000000001      3.1280000000000001
   287   1      31.280000000000001      34.408000000000001      3.1280000000000001
   288   3      34.408000000000001      34.408000000000001      3.1280000000000001
   289   3                       0                       0      6.2560000000000002
   290   1      3.1280000000000001                       0      6.2560000000000002
   291   1      6.2560000000000002                       0      6.2560000000000002
   292   3      9.3840000000000003                       0      6.2560000000000002
   293   1                  12.512                       0      6.2560000000000002
   294   1      15.640000000000001                       0      6.2560000000000002
   295   1      18.768000000000001                       0      6.2560000000000002
   296   1      21.896000000000001                       0      6.2560000000000002
   297   1      25.024000000000001                       0      6.2560000000000002
   298   1      28.152000000000001                       0      6.2560000000000002
   299   3      31.280000000000001                       0      6.2560000000000002
   300   3      34.408000000000001                       0      6.2560000000000002
   301   1                       0      3.1280000000000001      6.2560000000000002
   302   3      3.1280000000000001      3.1280000000000001      6.2560000000000002
   303   3      6.2560000000000002      3.1280000000000001      6.2560000000000002
   304   3      9.3840000000000003      3.1280000000000001      6.2560000000000002
   305   1                  12.512      3.1280000000000001      6.2560000000000002
   306   3      15.640000000000001      3.1280000000000001      6.2560000000000002
   307   3      18.768000000000001      3.1280000000000001      6.2560000000000002
   308   3      21.896000000000001      3.1280000000000001      6.2560000000000002
   309   1      25.024000000000001      3.1280000000000001      6.2560000000000002
   310   1      28.152000000000001      3.1280000000000001      6.2560000000000002
   311   1      31.280000000000001      3.1280000000000001      6.2560000000000002
   312   1      34.408000000000001      3.1280000000000001      6.2560000000000002
   313   1                       0      6.2560000000000002      6.2560000000000002
   314   1      3.1280000000000001      6.2560000000000002      6.2560000000000002
   315   1      6.2560000000000002      6.2560000000000002      6.2560000000000002
   316   3      9.3840000000000003      6.2560000000000002      6.2560000000000002
   317   1                  12.512      6.2560000000000002      6.2560000000000002
   318   3      15.640000000000001      6.2560000000000002      6.2560000000000002
   319   1      18.768000000000001      6.2560000000000002      6.2560000000000002
   320   3      21.896000000000001      6.2560000000000002      6.2560000000000002
   321   3      25.024000000000001      6.2560000000000002      6.2560000000000002
   322   3      28.152000000000001      6.2560000000000002      6.2560000000000002
   323   1      31.280000000000001      6.2560000000000002      6.2560000000000002
   324   1      34.408000000000001      6.2560000000000002      6.2560000000000002
   325   3                       0      9.3840000000000003      6.2560000000000002
   326   1      3.1280000000000001      9.3840000000000003      6.2560000000000002
   327   3      6.2560000000000002      9.3840000000000003      6.2560000000000002
   328   3      9.3840000000000003      9.3840000000000003      6.2560000000000002
   329   1                  12.512      9.3840000000000003      6.2560000000000002
   330   3      15.640000000000001      9.3840000000000003      6.2560000000000002
   331   1      18.768000000000001      9.3840000000000003      6.2560000000000002
   332   3      21.896000000000001      9.3840000000000003      6.2560000000000002
   333   1      25.024000000000001      9.3840000000000003      6.2560000000000002
   334   1      28.152000000000001      9.3840000000000003      6.2560000000000002
   335   1      31.280000000000001      9.3840000000000003      6.2560000000000002
   336   3      34.408000000000001      9.3840000000000003      6.2560000000000002
   337   1                       0                  12.512      6.2560000000000002
   338   3      3.1280000000000001                  12.512      6.2560000000000002
   339   3      6.2560000000000002                  12.512      6.2560000000000002
   340   5      9.3840000000000003                  12.512      6.2560000000000002
   341   3                  12.512                  12.512      6.2560000000000002
   342   1      15.640000000000001                  12.512      6.2560000000000002
   343   3      18.768000000000001                  12.512      6.2560000000000002
   344   1      21.896000000000001                  12.512      6.2560000000000002
   345   3      25.024000000000001                  12.512      6.2560000000000002
   346   1      28.152000000000001                  12.512      6.2560000000000002
   347   1      31.280000000000001                  12.512      6.2560000000000002
   348   3      34.408000000000001                  12.512      6.2560000000000002
   349   3                       0      15.640000000000001      6.2560000000000002
   350   3      3.1280000000000001      15.640000000000001      6.2560000000000002
   351   1      6.2560000000000002      15.640000000000001      6.2560000000000002
   352   3      9.3840000000000003      15.640000000000001      6.2560000000000002
   353   3                  12.512      15.640000000000001      6.2560000000000002
   354   3      15.640000000000001      15.640000000000001      6.2560000000000002
   355   1      18.768000000000001      15.640000000000001      6.2560000000000002
   356   3      21.896000000000001      15.640000000000001      6.2560000000000002
   357   3      25.024000000000001      15.640000000000001      6.2560000000000002
   358   3      28.152000000000001      15.640000000000001      6.2560000000000002
   359   1      31.280000000000001      15.640000000000001      6.2560000000000002