./HEA/HEA_II.lmp (written by ASE) 

3456 	 atoms 
5  atom types
0.0      37.536000000000001  xlo xhi
0.0      37.536000000000001  ylo yhi
0.0      37.536000000000001  zlo zhi


Atoms 

     1   3                       0                       0                       0
     2   1      3.1280000000000001                       0                       0
     3   3      6.2560000000000002                       0                       0
     4   1      9.3840000000000003                       0                       0
     5   3                  12.512                       0                       0
     6   3      15.640000000000001                       0                       0
     7   1      18.768000000000001                       0                       0
     8   1      21.896000000000001                       0                       0
     9   3      25.024000000000001                       0                       0
    10   1      28.152000000000001                       0                       0
    11   3      31.280000000000001                       0                       0
    12   1      34.408000000000001                       0                       0
    13   1                       0      3.1280000000000001                       0
    14   3      3.1280000000000001      3.1280000000000001                       0
    15   3      6.2560000000000002      3.1280000000000001                       0
    16   1      9.3840000000000003      3.1280000000000001                       0
    17   3                  12.512      3.1280000000000001                       0
    18   1      15.640000000000001      3.1280000000000001                       0
    19   1      18.768000000000001      3.1280000000000001                       0
    20   1      21.896000000000001      3.1280000000000001                       0
    21   3      25.024000000000001      3.1280000000000001                       0
    22   1      28.152000000000001      3.1280000000000001                       0
    23   1      31.280000000000001      3.1280000000000001                       0
    24   3      34.408000000000001      3.1280000000000001                       0
    25   3                       0      6.2560000000000002                       0
    26   1      3.1280000000000001      6.2560000000000002                       0
    27   1      6.2560000000000002      6.2560000000000002                       0
    28   3      9.3840000000000003      6.2560000000000002                       0
    29   3                  12.512      6.2560000000000002                       0
    30   1      15.640000000000001      6.2560000000000002                       0
    31   1      18.768000000000001      6.2560000000000002                       0
    32   1      21.896000000000001      6.2560000000000002                       0
    33   1      25.024000000000001      6.2560000000000002                       0
    34   3      28.152000000000001      6.2560000000000002                       0
    35   3      31.280000000000001      6.2560000000000002                       0
    36   3      34.408000000000001      6.2560000000000002                       0
    37   1                       0      9.3840000000000003                       0
    38   1      3.1280000000000001      9.3840000000000003                       0
    39   3      6.2560000000000002      9.3840000000000003                       0
    40   1      9.3840000000000003      9.3840000000000003                       0
    41   3                  12.512      9.3840000000000003                       0
    42   1      15.640000000000001      9.3840000000000003                       0
    43   1      18.768000000000001      9.3840000000000003                       0
    44   1      21.896000000000001      9.3840000000000003                       0
    45   1      25.024000000000001      9.3840000000000003                       0
    46   1      28.152000000000001      9.3840000000000003                       0
    47   1      31.280000000000001      9.3840000000000003                       0
    48   3      34.408000000000001      9.3840000000000003                       0
    49   3                       0                  12.512                       0
    50   1      3.1280000000000001                  12.512                       0
    51   1      6.2560000000000002                  12.512                       0
    52   1      9.3840000000000003                  12.512                       0
    53   3                  12.512                  12.512                       0
    54   1      15.640000000000001                  12.512                       0
    55   1      18.768000000000001                  12.512                       0
    56   3      21.896000000000001                  12.512                       0
    57   3      25.024000000000001                  12.512                       0
    58   1      28.152000000000001                  12.512                       0
    59   1      31.280000000000001                  12.512                       0
    60   3      34.408000000000001                  12.512                       0
    61   1                       0      15.640000000000001                       0
    62   3      3.1280000000000001      15.640000000000001                       0
    63   1      6.2560000000000002      15.640000000000001                       0
    64   3      9.3840000000000003      15.640000000000001                       0
    65   3                  12.512      15.640000000000001                       0
    66   3      15.640000000000001      15.640000000000001                       0
    67   1      18.768000000000001      15.640000000000001                       0
    68   3      21.896000000000001      15.640000000000001                       0
    69   3      25.024000000000001      15.640000000000001                       0
    70   1      28.152000000000001      15.640000000000001                       0
    71   1      31.280000000000001      15.640000000000001                       0
    72   1      34.408000000000001      15.640000000000001                       0
    73   3                       0      18.768000000000001                       0
    74   3      3.1280000000000001      18.768000000000001                       0
    75   3      6.2560000000000002      18.768000000000001                       0
    76   1      9.3840000000000003      18.768000000000001                       0
    77   3                  12.512      18.768000000000001                       0
    78   3      15.640000000000001      18.768000000000001                       0
    79   1      18.768000000000001      18.768000000000001                       0
    80   1      21.896000000000001      18.768000000000001                       0
    81   3      25.024000000000001      18.768000000000001                       0
    82   1      28.152000000000001      18.768000000000001                       0
    83   1      31.280000000000001      18.768000000000001                       0
    84   1      34.408000000000001      18.768000000000001                       0
    85   1                       0      21.896000000000001                       0
    86   3      3.1280000000000001      21.896000000000001                       0
    87   1      6.2560000000000002      21.896000000000001                       0
    88   1      9.3840000000000003      21.896000000000001                       0
    89   3                  12.512      21.896000000000001                       0
    90   1      15.640000000000001      21.896000000000001                       0
    91   3      18.768000000000001      21.896000000000001                       0
    92   3      21.896000000000001      21.896000000000001                       0
    93   1      25.024000000000001      21.896000000000001                       0
    94   1      28.152000000000001      21.896000000000001                       0
    95   3      31.280000000000001      21.896000000000001                       0
    96   1      34.408000000000001      21.896000000000001                       0
    97   1                       0      25.024000000000001                       0
    98   3      3.1280000000000001      25.024000000000001                       0
    99   3      6.2560000000000002      25.024000000000001                       0
   100   1      9.3840000000000003      25.024000000000001                       0
   101   1                  12.512      25.024000000000001                       0
   102   3      15.640000000000001      25.024000000000001                       0
   103   1      18.768000000000001      25.024000000000001                       0
   104   3      21.896000000000001      25.024000000000001                       0
   105   1      25.024000000000001      25.024000000000001                       0
   106   1      28.152000000000001      25.024000000000001                       0
   107   3      31.280000000000001      25.024000000000001                       0
   108   3      34.408000000000001      25.024000000000001                       0
   109   3                       0      28.152000000000001                       0
   110   1      3.1280000000000001      28.152000000000001                       0
   111   3      6.2560000000000002      28.152000000000001                       0
   112   3      9.3840000000000003      28.152000000000001                       0
   113   1                  12.512      28.152000000000001                       0
   114   3      15.640000000000001      28.152000000000001                       0
   115   1      18.768000000000001      28.152000000000001                       0
   116   3      21.896000000000001      28.152000000000001                       0
   117   3      25.024000000000001      28.152000000000001                       0
   118   1      28.152000000000001      28.152000000000001                       0
   119   1      31.280000000000001      28.152000000000001                       0
   120   3      34.408000000000001      28.152000000000001                       0
   121   3                       0      31.280000000000001                       0
   122   1      3.1280000000000001      31.280000000000001                       0
   123   1      6.2560000000000002      31.280000000000001                       0
   124   1      9.3840000000000003      31.280000000000001                       0
   125   1                  12.512      31.280000000000001                       0
   126   3      15.640000000000001      31.280000000000001                       0
   127   1      18.768000000000001      31.280000000000001                       0
   128   3      21.896000000000001      31.280000000000001                       0
   129   3      25.024000000000001      31.280000000000001                       0
   130   1      28.152000000000001      31.280000000000001                       0
   131   1      31.280000000000001      31.280000000000001                       0
   132   3      34.408000000000001      31.280000000000001                       0
   133   1                       0      34.408000000000001                       0
   134   1      3.1280000000000001      34.408000000000001                       0
   135   1      6.2560000000000002      34.408000000000001                       0
   136   1      9.3840000000000003      34.408000000000001                       0
   137   1                  12.512      34.408000000000001                       0
   138   3      15.640000000000001      34.408000000000001                       0
   139   1      18.768000000000001      34.408000000000001                       0
   140   1      21.896000000000001      34.408000000000001                       0
   141   1      25.024000000000001      34.408000000000001                       0
   142   1      28.152000000000001      34.408000000000001                       0
   143   3      31.280000000000001      34.408000000000001                       0
   144   3      34.408000000000001      34.408000000000001                       0
   145   1                       0                       0      3.1280000000000001
   146   1      3.1280000000000001                       0      3.1280000000000001
   147   3      6.2560000000000002                       0      3.1280000000000001
   148   3      9.3840000000000003                       0      3.1280000000000001
   149   1                  12.512                       0      3.1280000000000001
   150   1      15.640000000000001                       0      3.1280000000000001
   151   3      18.768000000000001                       0      3.1280000000000001
   152   1      21.896000000000001                       0      3.1280000000000001
   153   3      25.024000000000001                       0      3.1280000000000001
   154   3      28.152000000000001                       0      3.1280000000000001
   155   1      31.280000000000001                       0      3.1280000000000001
   156   3      34.408000000000001                       0      3.1280000000000001
   157   3                       0      3.1280000000000001      3.1280000000000001
   158   1      3.1280000000000001      3.1280000000000001      3.1280000000000001
   159   3      6.2560000000000002      3.1280000000000001      3.1280000000000001
   160   3      9.3840000000000003      3.1280000000000001      3.1280000000000001
   161   1                  12.512      3.1280000000000001      3.1280000000000001
   162   3      15.640000000000001      3.1280000000000001      3.1280000000000001
   163   1      18.768000000000001      3.1280000000000001      3.1280000000000001
   164   1      21.896000000000001      3.1280000000000001      3.1280000000000001
   165   1      25.024000000000001      3.1280000000000001      3.1280000000000001
   166   3      28.152000000000001      3.1280000000000001      3.1280000000000001
   167   1      31.280000000000001      3.1280000000000001      3.1280000000000001
   168   1      34.408000000000001      3.1280000000000001      3.1280000000000001
   169   3                       0      6.2560000000000002      3.1280000000000001
   170   3      3.1280000000000001      6.2560000000000002      3.1280000000000001
   171   3      6.2560000000000002      6.2560000000000002      3.1280000000000001
   172   3      9.3840000000000003      6.2560000000000002      3.1280000000000001
   173   3                  12.512      6.2560000000000002      3.1280000000000001
   174   1      15.640000000000001      6.2560000000000002      3.1280000000000001
   175   1      18.768000000000001      6.2560000000000002      3.1280000000000001
   176   3      21.896000000000001      6.2560000000000002      3.1280000000000001
   177   1      25.024000000000001      6.2560000000000002      3.1280000000000001
   178   3      28.152000000000001      6.2560000000000002      3.1280000000000001
   179   3      31.280000000000001      6.2560000000000002      3.1280000000000001
   180   1      34.408000000000001      6.2560000000000002      3.1280000000000001
   181   1                       0      9.3840000000000003      3.1280000000000001
   182   1      3.1280000000000001      9.3840000000000003      3.1280000000000001
   183   3      6.2560000000000002      9.3840000000000003      3.1280000000000001
   184   1      9.3840000000000003      9.3840000000000003      3.1280000000000001
   185   1                  12.512      9.3840000000000003      3.1280000000000001
   186   1      15.640000000000001      9.3840000000000003      3.1280000000000001
   187   1      18.768000000000001      9.3840000000000003      3.1280000000000001
   188   1      21.896000000000001      9.3840000000000003      3.1280000000000001
   189   3      25.024000000000001      9.3840000000000003      3.1280000000000001
   190   1      28.152000000000001      9.3840000000000003      3.1280000000000001
   191   3      31.280000000000001      9.3840000000000003      3.1280000000000001
   192   1      34.408000000000001      9.3840000000000003      3.1280000000000001
   193   3                       0                  12.512      3.1280000000000001
   194   3      3.1280000000000001                  12.512      3.1280000000000001
   195   1      6.2560000000000002                  12.512      3.1280000000000001
   196   3      9.3840000000000003                  12.512      3.1280000000000001
   197   3                  12.512                  12.512      3.1280000000000001
   198   1      15.640000000000001                  12.512      3.1280000000000001
   199   3      18.768000000000001                  12.512      3.1280000000000001
   200   3      21.896000000000001                  12.512      3.1280000000000001
   201   1      25.024000000000001                  12.512      3.1280000000000001
   202   3      28.152000000000001                  12.512      3.1280000000000001
   203   3      31.280000000000001                  12.512      3.1280000000000001
   204   1      34.408000000000001                  12.512      3.1280000000000001
   205   1                       0      15.640000000000001      3.1280000000000001
   206   1      3.1280000000000001      15.640000000000001      3.1280000000000001
   207   1      6.2560000000000002      15.640000000000001      3.1280000000000001
   208   1      9.3840000000000003      15.640000000000001      3.1280000000000001
   209   3                  12.512      15.640000000000001      3.1280000000000001
   210   3      15.640000000000001      15.640000000000001      3.1280000000000001
   211   3      18.768000000000001      15.640000000000001      3.1280000000000001
   212   1      21.896000000000001      15.640000000000001      3.1280000000000001
   213   3      25.024000000000001      15.640000000000001      3.1280000000000001
   214   3      28.152000000000001      15.640000000000001      3.1280000000000001
   215   3      31.280000000000001      15.640000000000001      3.1280000000000001
   216   1      34.408000000000001      15.640000000000001      3.1280000000000001
   217   3                       0      18.768000000000001      3.1280000000000001
   218   1      3.1280000000000001      18.768000000000001      3.1280000000000001
   219   1      6.2560000000000002      18.768000000000001      3.1280000000000001
   220   1      9.3840000000000003      18.768000000000001      3.1280000000000001
   221   3                  12.512      18.768000000000001      3.1280000000000001
   222   1      15.640000000000001      18.768000000000001      3.1280000000000001
   223   1      18.768000000000001      18.768000000000001      3.1280000000000001
   224   1      21.896000000000001      18.768000000000001      3.1280000000000001
   225   3      25.024000000000001      18.768000000000001      3.1280000000000001
   226   1      28.152000000000001      18.768000000000001      3.1280000000000001
   227   1      31.280000000000001      18.768000000000001      3.1280000000000001
   228   3      34.408000000000001      18.768000000000001      3.1280000000000001
   229   1                       0      21.896000000000001      3.1280000000000001
   230   3      3.1280000000000001      21.896000000000001      3.1280000000000001
   231   3      6.2560000000000002      21.896000000000001      3.1280000000000001
   232   3      9.3840000000000003      21.896000000000001      3.1280000000000001
   233   3                  12.512      21.896000000000001      3.1280000000000001
   234   1      15.640000000000001      21.896000000000001      3.1280000000000001
   235   1      18.768000000000001      21.896000000000001      3.1280000000000001
   236   3      21.896000000000001      21.896000000000001      3.1280000000000001
   237   3      25.024000000000001      21.896000000000001      3.1280000000000001
   238   1      28.152000000000001      21.896000000000001      3.1280000000000001
   239   3      31.280000000000001      21.896000000000001      3.1280000000000001
   240   1      34.408000000000001      21.896000000000001      3.1280000000000001
   241   3                       0      25.024000000000001      3.1280000000000001
   242   1      3.1280000000000001      25.024000000000001      3.1280000000000001
   243   1      6.2560000000000002      25.024000000000001      3.1280000000000001
   244   1      9.3840000000000003      25.024000000000001      3.1280000000000001
   245   3                  12.512      25.024000000000001      3.1280000000000001
   246   1      15.640000000000001      25.024000000000001      3.1280000000000001
   247   1      18.768000000000001      25.024000000000001      3.1280000000000001
   248   3      21.896000000000001      25.024000000000001      3.1280000000000001
   249   1      25.024000000000001      25.024000000000001      3.1280000000000001
   250   1      28.152000000000001      25.024000000000001      3.1280000000000001
   251   1      31.280000000000001      25.024000000000001      3.1280000000000001
   252   1      34.408000000000001      25.024000000000001      3.1280000000000001
   253   1                       0      28.152000000000001      3.1280000000000001
   254   1      3.1280000000000001      28.152000000000001      3.1280000000000001
   255   3      6.2560000000000002      28.152000000000001      3.1280000000000001
   256   3      9.3840000000000003      28.152000000000001      3.1280000000000001
   257   3                  12.512      28.152000000000001      3.1280000000000001
   258   3      15.640000000000001      28.152000000000001      3.1280000000000001
   259   3      18.768000000000001      28.152000000000001      3.1280000000000001
   260   3      21.896000000000001      28.152000000000001      3.1280000000000001
   261   3      25.024000000000001      28.152000000000001      3.1280000000000001
   262   3      28.152000000000001      28.152000000000001      3.1280000000000001
   263   3      31.280000000000001      28.152000000000001      3.1280000000000001
   264   3      34.408000000000001      28.152000000000001      3.1280000000000001
   265   1                       0      31.280000000000001      3.1280000000000001
   266   3      3.1280000000000001      31.280000000000001      3.1280000000000001
   267   1      6.2560000000000002      31.280000000000001      3.1280000000000001
   268   1      9.3840000000000003      31.280000000000001      3.1280000000000001
   269   3                  12.512      31.280000000000001      3.1280000000000001
   270   3      15.640000000000001      31.280000000000001      3.1280000000000001
   271   1      18.768000000000001      31.280000000000001      3.1280000000000001
   272   1      21.896000000000001      31.280000000000001      3.1280000000000001
   273   3      25.024000000000001      31.280000000000001      3.1280000000000001
   274   1      28.152000000000001      31.280000000000001      3.1280000000000001
   275   1      31.280000000000001      31.280000000000001      3.1280000000000001
   276   3      34.408000000000001      31.280000000000001      3.1280000000000001
   277   1                       0      34.408000000000001      3.1280000000000001
   278   1      3.1280000000000001      34.408000000000001      3.1280000000000001
   279   3      6.2560000000000002      34.408000000000001      3.1280000000000001
   280   1      9.3840000000000003      34.408000000000001      3.1280000000000001
   281   3                  12.512      34.408000000000001      3.1280000000000001
   282   3      15.640000000000001      34.408000000000001      3.1280000000000001
   283   1      18.768000000000001      34.408000000000001      3.1280000000000001
   284   1      21.896000000000001      34.408000000000001      3.1280000000000001
   285   1      25.024000000000001      34.408000000000001      3.1280000000000001
   286   1      28.152000000000001      34.408000000000001      3.1280000000000001
   287   1      31.280000000000001      34.408000000000001      3.1280000000000001
   288   1      34.408000000000001      34.408000000000001      3.1280000000000001
   289   3                       0                       0      6.2560000000000002
   290   3      3.1280000000000001                       0      6.2560000000000002
   291   1      6.2560000000000002                       0      6.2560000000000002
   292   1      9.3840000000000003                       0      6.2560000000000002
   293   3                  12.512                       0      6.2560000000000002
   294   3      15.640000000000001                       0      6.2560000000000002
   295   1      18.768000000000001                       0      6.2560000000000002
   296   3      21.896000000000001                       0      6.2560000000000002
   297   1      25.024000000000001                       0      6.2560000000000002
   298   1      28.152000000000001                       0      6.2560000000000002
   299   1      31.280000000000001                       0      6.2560000000000002
   300   3      34.408000000000001                       0      6.2560000000000002
   301   3                       0      3.1280000000000001      6.2560000000000002
   302   3      3.1280000000000001      3.1280000000000001      6.2560000000000002
   303   3      6.2560000000000002      3.1280000000000001      6.2560000000000002
   304   1      9.3840000000000003      3.1280000000000001      6.2560000000000002
   305   3                  12.512      3.1280000000000001      6.2560000000000002
   306   1      15.640000000000001      3.1280000000000001      6.2560000000000002
   307   3      18.768000000000001      3.1280000000000001      6.2560000000000002
   308   3      21.896000000000001      3.1280000000000001      6.2560000000000002
   309   3      25.024000000000001      3.1280000000000001      6.2560000000000002
   310   1      28.152000000000001      3.1280000000000001      6.2560000000000002
   311   3      31.280000000000001      3.1280000000000001      6.2560000000000002
   312   1      34.408000000000001      3.1280000000000001      6.2560000000000002
   313   3                       0      6.2560000000000002      6.2560000000000002
   314   3      3.1280000000000001      6.2560000000000002      6.2560000000000002
   315   3      6.2560000000000002      6.2560000000000002      6.2560000000000002
   316   1      9.3840000000000003      6.2560000000000002      6.2560000000000002
   317   3                  12.512      6.2560000000000002      6.2560000000000002
   318   3      15.640000000000001      6.2560000000000002      6.2560000000000002
   319   3      18.768000000000001      6.2560000000000002      6.2560000000000002
   320   3      21.896000000000001      6.2560000000000002      6.2560000000000002
   321   3      25.024000000000001      6.2560000000000002      6.2560000000000002
   322   3      28.152000000000001      6.2560000000000002      6.2560000000000002
   323   1      31.280000000000001      6.2560000000000002      6.2560000000000002
   324   1      34.408000000000001      6.2560000000000002      6.2560000000000002
   325   1                       0      9.3840000000000003      6.2560000000000002
   326   1      3.1280000000000001      9.3840000000000003      6.2560000000000002
   327   1      6.2560000000000002      9.3840000000000003      6.2560000000000002
   328   3      9.3840000000000003      9.3840000000000003      6.2560000000000002
   329   1                  12.512      9.3840000000000003      6.2560000000000002
   330   3      15.640000000000001      9.3840000000000003      6.2560000000000002
   331   3      18.768000000000001      9.3840000000000003      6.2560000000000002
   332   3      21.896000000000001      9.3840000000000003      6.2560000000000002
   333   3      25.024000000000001      9.3840000000000003      6.2560000000000002
   334   1      28.152000000000001      9.3840000000000003      6.2560000000000002
   335   3      31.280000000000001      9.3840000000000003      6.2560000000000002
   336   1      34.408000000000001      9.3840000000000003      6.2560000000000002
   337   1                       0                  12.512      6.2560000000000002
   338   3      3.1280000000000001                  12.512      6.2560000000000002
   339   1      6.2560000000000002                  12.512      6.2560000000000002
   340   3      9.3840000000000003                  12.512      6.2560000000000002
   341   1                  12.512                  12.512      6.2560000000000002
   342   1      15.640000000000001                  12.512      6.2560000000000002
   343   1      18.768000000000001                  12.512      6.2560000000000002
   344   1      21.896000000000001                  12.512      6.2560000000000002
   345   3      25.024000000000001                  12.512      6.2560000000000002
   346   1      28.152000000000001                  12.512      6.2560000000000002
   347   1      31.280000000000001                  12.512      6.2560000000000002
   348   3      34.408000000000001                  12.512      6.2560000000000002
   349   1                       0      15.640000000000001      6.2560000000000002
   350   1      3.1280000000000001      15.640000000000001      6.2560000000000002
   351   3      6.2560000000000002      15.640000000000001      6.2560000000000002
   352   1      9.3840000000000003      15.640000000000001      6.2560000000000002
   353   1                  12.512      15.640000000000001      6.2560000000000002
   354   1      15.640000000000001      15.640000000000001      6.2560000000000002
   355   1      18.768000000000001      15.640000000000001      6.2560000000000002
   356   3      21.896000000000001      15.640000000000001      6.2560000000000002
   357   3      25.024000000000001      15.640000000000001      6.2560000000000002
   358   1      28.152000000000001      15.640000000000001      6.2560000000000002
   359   3      31.280000000000001      15.640000000000001      6.2560000000000002