./HEA/HEA_I.lmp (written by ASE) 

3456 	 atoms 
5  atom types
0.0      37.536000000000001  xlo xhi
0.0      37.536000000000001  ylo yhi
0.0      37.536000000000001  zlo zhi


Atoms 

     1   3                       0                       0                       0
     2   4      3.1280000000000001                       0                       0
     3   3      6.2560000000000002                       0                       0
     4   1      9.3840000000000003                       0                       0
     5   3                  12.512                       0                       0
     6   3      15.640000000000001                       0                       0
     7   1      18.768000000000001                       0                       0
     8   2      21.896000000000001                       0                       0
     9   1      25.024000000000001                       0                       0
    10   1      28.152000000000001                       0                       0
    11   3      31.280000000000001                       0                       0
    12   2      34.408000000000001                       0                       0
    13   2                       0      3.1280000000000001                       0
    14   4      3.1280000000000001      3.1280000000000001                       0
    15   5      6.2560000000000002      3.1280000000000001                       0
    16   5      9.3840000000000003      3.1280000000000001                       0
    17   2                  12.512      3.1280000000000001                       0
    18   4      15.640000000000001      3.1280000000000001                       0
    19   5      18.768000000000001      3.1280000000000001                       0
    20   4      21.896000000000001      3.1280000000000001                       0
    21   1      25.024000000000001      3.1280000000000001                       0
    22   5      28.152000000000001      3.1280000000000001                       0
    23   4      31.280000000000001      3.1280000000000001                       0
    24   4      34.408000000000001      3.1280000000000001                       0
    25   3                       0      6.2560000000000002                       0
    26   1      3.1280000000000001      6.2560000000000002                       0
    27   3      6.2560000000000002      6.2560000000000002                       0
    28   3      9.3840000000000003      6.2560000000000002                       0
    29   2                  12.512      6.2560000000000002                       0
    30   1      15.640000000000001      6.2560000000000002                       0
    31   4      18.768000000000001      6.2560000000000002                       0
    32   4      21.896000000000001      6.2560000000000002                       0
    33   4      25.024000000000001      6.2560000000000002                       0
    34   1      28.152000000000001      6.2560000000000002                       0
    35   1      31.280000000000001      6.2560000000000002                       0
    36   2      34.408000000000001      6.2560000000000002                       0
    37   4                       0      9.3840000000000003                       0
    38   5      3.1280000000000001      9.3840000000000003                       0
    39   4      6.2560000000000002      9.3840000000000003                       0
    40   5      9.3840000000000003      9.3840000000000003                       0
    41   2                  12.512      9.3840000000000003                       0
    42   1      15.640000000000001      9.3840000000000003                       0
    43   4      18.768000000000001      9.3840000000000003                       0
    44   2      21.896000000000001      9.3840000000000003                       0
    45   1      25.024000000000001      9.3840000000000003                       0
    46   4      28.152000000000001      9.3840000000000003                       0
    47   5      31.280000000000001      9.3840000000000003                       0
    48   1      34.408000000000001      9.3840000000000003                       0
    49   3                       0                  12.512                       0
    50   3      3.1280000000000001                  12.512                       0
    51   2      6.2560000000000002                  12.512                       0
    52   5      9.3840000000000003                  12.512                       0
    53   1                  12.512                  12.512                       0
    54   2      15.640000000000001                  12.512                       0
    55   4      18.768000000000001                  12.512                       0
    56   5      21.896000000000001                  12.512                       0
    57   3      25.024000000000001                  12.512                       0
    58   3      28.152000000000001                  12.512                       0
    59   2      31.280000000000001                  12.512                       0
    60   4      34.408000000000001                  12.512                       0
    61   4                       0      15.640000000000001                       0
    62   5      3.1280000000000001      15.640000000000001                       0
    63   2      6.2560000000000002      15.640000000000001                       0
    64   2      9.3840000000000003      15.640000000000001                       0
    65   1                  12.512      15.640000000000001                       0
    66   3      15.640000000000001      15.640000000000001                       0
    67   4      18.768000000000001      15.640000000000001                       0
    68   3      21.896000000000001      15.640000000000001                       0
    69   3      25.024000000000001      15.640000000000001                       0
    70   4      28.152000000000001      15.640000000000001                       0
    71   1      31.280000000000001      15.640000000000001                       0
    72   3      34.408000000000001      15.640000000000001                       0
    73   2                       0      18.768000000000001                       0
    74   1      3.1280000000000001      18.768000000000001                       0
    75   2      6.2560000000000002      18.768000000000001                       0
    76   4      9.3840000000000003      18.768000000000001                       0
    77   2                  12.512      18.768000000000001                       0
    78   1      15.640000000000001      18.768000000000001                       0
    79   5      18.768000000000001      18.768000000000001                       0
    80   3      21.896000000000001      18.768000000000001                       0
    81   1      25.024000000000001      18.768000000000001                       0
    82   5      28.152000000000001      18.768000000000001                       0
    83   1      31.280000000000001      18.768000000000001                       0
    84   5      34.408000000000001      18.768000000000001                       0
    85   4                       0      21.896000000000001                       0
    86   5      3.1280000000000001      21.896000000000001                       0
    87   4      6.2560000000000002      21.896000000000001                       0
    88   1      9.3840000000000003      21.896000000000001                       0
    89   3                  12.512      21.896000000000001                       0
    90   1      15.640000000000001      21.896000000000001                       0
    91   3      18.768000000000001      21.896000000000001                       0
    92   3      21.896000000000001      21.896000000000001                       0
    93   5      25.024000000000001      21.896000000000001                       0
    94   3      28.152000000000001      21.896000000000001                       0
    95   5      31.280000000000001      21.896000000000001                       0
    96   3      34.408000000000001      21.896000000000001                       0
    97   3                       0      25.024000000000001                       0
    98   5      3.1280000000000001      25.024000000000001                       0
    99   1      6.2560000000000002      25.024000000000001                       0
   100   5      9.3840000000000003      25.024000000000001                       0
   101   4                  12.512      25.024000000000001                       0
   102   1      15.640000000000001      25.024000000000001                       0
   103   3      18.768000000000001      25.024000000000001                       0
   104   1      21.896000000000001      25.024000000000001                       0
   105   3      25.024000000000001      25.024000000000001                       0
   106   4      28.152000000000001      25.024000000000001                       0
   107   3      31.280000000000001      25.024000000000001                       0
   108   3      34.408000000000001      25.024000000000001                       0
   109   1                       0      28.152000000000001                       0
   110   2      3.1280000000000001      28.152000000000001                       0
   111   4      6.2560000000000002      28.152000000000001                       0
   112   3      9.3840000000000003      28.152000000000001                       0
   113   1                  12.512      28.152000000000001                       0
   114   4      15.640000000000001      28.152000000000001                       0
   115   2      18.768000000000001      28.152000000000001                       0
   116   3      21.896000000000001      28.152000000000001                       0
   117   1      25.024000000000001      28.152000000000001                       0
   118   5      28.152000000000001      28.152000000000001                       0
   119   5      31.280000000000001      28.152000000000001                       0
   120   1      34.408000000000001      28.152000000000001                       0
   121   2                       0      31.280000000000001                       0
   122   3      3.1280000000000001      31.280000000000001                       0
   123   1      6.2560000000000002      31.280000000000001                       0
   124   3      9.3840000000000003      31.280000000000001                       0
   125   1                  12.512      31.280000000000001                       0
   126   3      15.640000000000001      31.280000000000001                       0
   127   2      18.768000000000001      31.280000000000001                       0
   128   3      21.896000000000001      31.280000000000001                       0
   129   2      25.024000000000001      31.280000000000001                       0
   130   2      28.152000000000001      31.280000000000001                       0
   131   3      31.280000000000001      31.280000000000001                       0
   132   1      34.408000000000001      31.280000000000001                       0
   133   5                       0      34.408000000000001                       0
   134   2      3.1280000000000001      34.408000000000001                       0
   135   1      6.2560000000000002      34.408000000000001                       0
   136   1      9.3840000000000003      34.408000000000001                       0
   137   3                  12.512      34.408000000000001                       0
   138   5      15.640000000000001      34.408000000000001                       0
   139   3      18.768000000000001      34.408000000000001                       0
   140   3      21.896000000000001      34.408000000000001                       0
   141   2      25.024000000000001      34.408000000000001                       0
   142   2      28.152000000000001      34.408000000000001                       0
   143   4      31.280000000000001      34.408000000000001                       0
   144   1      34.408000000000001      34.408000000000001                       0
   145   1                       0                       0      3.1280000000000001
   146   4      3.1280000000000001                       0      3.1280000000000001
   147   1      6.2560000000000002                       0      3.1280000000000001
   148   2      9.3840000000000003                       0      3.1280000000000001
   149   4                  12.512                       0      3.1280000000000001
   150   1      15.640000000000001                       0      3.1280000000000001
   151   1      18.768000000000001                       0      3.1280000000000001
   152   1      21.896000000000001                       0      3.1280000000000001
   153   1      25.024000000000001                       0      3.1280000000000001
   154   2      28.152000000000001                       0      3.1280000000000001
   155   3      31.280000000000001                       0      3.1280000000000001
   156   1      34.408000000000001                       0      3.1280000000000001
   157   1                       0      3.1280000000000001      3.1280000000000001
   158   4      3.1280000000000001      3.1280000000000001      3.1280000000000001
   159   2      6.2560000000000002      3.1280000000000001      3.1280000000000001
   160   5      9.3840000000000003      3.1280000000000001      3.1280000000000001
   161   3                  12.512      3.1280000000000001      3.1280000000000001
   162   3      15.640000000000001      3.1280000000000001      3.1280000000000001
   163   1      18.768000000000001      3.1280000000000001      3.1280000000000001
   164   1      21.896000000000001      3.1280000000000001      3.1280000000000001
   165   4      25.024000000000001      3.1280000000000001      3.1280000000000001
   166   2      28.152000000000001      3.1280000000000001      3.1280000000000001
   167   1      31.280000000000001      3.1280000000000001      3.1280000000000001
   168   1      34.408000000000001      3.1280000000000001      3.1280000000000001
   169   4                       0      6.2560000000000002      3.1280000000000001
   170   5      3.1280000000000001      6.2560000000000002      3.1280000000000001
   171   4      6.2560000000000002      6.2560000000000002      3.1280000000000001
   172   2      9.3840000000000003      6.2560000000000002      3.1280000000000001
   173   5                  12.512      6.2560000000000002      3.1280000000000001
   174   1      15.640000000000001      6.2560000000000002      3.1280000000000001
   175   3      18.768000000000001      6.2560000000000002      3.1280000000000001
   176   1      21.896000000000001      6.2560000000000002      3.1280000000000001
   177   3      25.024000000000001      6.2560000000000002      3.1280000000000001
   178   4      28.152000000000001      6.2560000000000002      3.1280000000000001
   179   1      31.280000000000001      6.2560000000000002      3.1280000000000001
   180   1      34.408000000000001      6.2560000000000002      3.1280000000000001
   181   5                       0      9.3840000000000003      3.1280000000000001
   182   3      3.1280000000000001      9.3840000000000003      3.1280000000000001
   183   3      6.2560000000000002      9.3840000000000003      3.1280000000000001
   184   3      9.3840000000000003      9.3840000000000003      3.1280000000000001
   185   3                  12.512      9.3840000000000003      3.1280000000000001
   186   3      15.640000000000001      9.3840000000000003      3.1280000000000001
   187   5      18.768000000000001      9.3840000000000003      3.1280000000000001
   188   2      21.896000000000001      9.3840000000000003      3.1280000000000001
   189   1      25.024000000000001      9.3840000000000003      3.1280000000000001
   190   2      28.152000000000001      9.3840000000000003      3.1280000000000001
   191   1      31.280000000000001      9.3840000000000003      3.1280000000000001
   192   4      34.408000000000001      9.3840000000000003      3.1280000000000001
   193   4                       0                  12.512      3.1280000000000001
   194   4      3.1280000000000001                  12.512      3.1280000000000001
   195   1      6.2560000000000002                  12.512      3.1280000000000001
   196   1      9.3840000000000003                  12.512      3.1280000000000001
   197   4                  12.512                  12.512      3.1280000000000001
   198   1      15.640000000000001                  12.512      3.1280000000000001
   199   3      18.768000000000001                  12.512      3.1280000000000001
   200   3      21.896000000000001                  12.512      3.1280000000000001
   201   4      25.024000000000001                  12.512      3.1280000000000001
   202   2      28.152000000000001                  12.512      3.1280000000000001
   203   2      31.280000000000001                  12.512      3.1280000000000001
   204   3      34.408000000000001                  12.512      3.1280000000000001
   205   1                       0      15.640000000000001      3.1280000000000001
   206   5      3.1280000000000001      15.640000000000001      3.1280000000000001
   207   2      6.2560000000000002      15.640000000000001      3.1280000000000001
   208   4      9.3840000000000003      15.640000000000001      3.1280000000000001
   209   4                  12.512      15.640000000000001      3.1280000000000001
   210   2      15.640000000000001      15.640000000000001      3.1280000000000001
   211   3      18.768000000000001      15.640000000000001      3.1280000000000001
   212   2      21.896000000000001      15.640000000000001      3.1280000000000001
   213   1      25.024000000000001      15.640000000000001      3.1280000000000001
   214   1      28.152000000000001      15.640000000000001      3.1280000000000001
   215   5      31.280000000000001      15.640000000000001      3.1280000000000001
   216   1      34.408000000000001      15.640000000000001      3.1280000000000001
   217   4                       0      18.768000000000001      3.1280000000000001
   218   1      3.1280000000000001      18.768000000000001      3.1280000000000001
   219   2      6.2560000000000002      18.768000000000001      3.1280000000000001
   220   2      9.3840000000000003      18.768000000000001      3.1280000000000001
   221   2                  12.512      18.768000000000001      3.1280000000000001
   222   3      15.640000000000001      18.768000000000001      3.1280000000000001
   223   1      18.768000000000001      18.768000000000001      3.1280000000000001
   224   3      21.896000000000001      18.768000000000001      3.1280000000000001
   225   1      25.024000000000001      18.768000000000001      3.1280000000000001
   226   1      28.152000000000001      18.768000000000001      3.1280000000000001
   227   3      31.280000000000001      18.768000000000001      3.1280000000000001
   228   1      34.408000000000001      18.768000000000001      3.1280000000000001
   229   3                       0      21.896000000000001      3.1280000000000001
   230   1      3.1280000000000001      21.896000000000001      3.1280000000000001
   231   1      6.2560000000000002      21.896000000000001      3.1280000000000001
   232   5      9.3840000000000003      21.896000000000001      3.1280000000000001
   233   4                  12.512      21.896000000000001      3.1280000000000001
   234   2      15.640000000000001      21.896000000000001      3.1280000000000001
   235   5      18.768000000000001      21.896000000000001      3.1280000000000001
   236   2      21.896000000000001      21.896000000000001      3.1280000000000001
   237   1      25.024000000000001      21.896000000000001      3.1280000000000001
   238   3      28.152000000000001      21.896000000000001      3.1280000000000001
   239   5      31.280000000000001      21.896000000000001      3.1280000000000001
   240   1      34.408000000000001      21.896000000000001      3.1280000000000001
   241   2                       0      25.024000000000001      3.1280000000000001
   242   3      3.1280000000000001      25.024000000000001      3.1280000000000001
   243   5      6.2560000000000002      25.024000000000001      3.1280000000000001
   244   1      9.3840000000000003      25.024000000000001      3.1280000000000001
   245   2                  12.512      25.024000000000001      3.1280000000000001
   246   4      15.640000000000001      25.024000000000001      3.1280000000000001
   247   3      18.768000000000001      25.024000000000001      3.1280000000000001
   248   1      21.896000000000001      25.024000000000001      3.1280000000000001
   249   5      25.024000000000001      25.024000000000001      3.1280000000000001
   250   1      28.152000000000001      25.024000000000001      3.1280000000000001
   251   3      31.280000000000001      25.024000000000001      3.1280000000000001
   252   2      34.408000000000001      25.024000000000001      3.1280000000000001
   253   3                       0      28.152000000000001      3.1280000000000001
   254   4      3.1280000000000001      28.152000000000001      3.1280000000000001
   255   5      6.2560000000000002      28.152000000000001      3.1280000000000001
   256   4      9.3840000000000003      28.152000000000001      3.1280000000000001
   257   1                  12.512      28.152000000000001      3.1280000000000001
   258   1      15.640000000000001      28.152000000000001      3.1280000000000001
   259   3      18.768000000000001      28.152000000000001      3.1280000000000001
   260   4      21.896000000000001      28.152000000000001      3.1280000000000001
   261   3      25.024000000000001      28.152000000000001      3.1280000000000001
   262   3      28.152000000000001      28.152000000000001      3.1280000000000001
   263   4      31.280000000000001      28.152000000000001      3.1280000000000001
   264   1      34.408000000000001      28.152000000000001      3.1280000000000001
   265   3                       0      31.280000000000001      3.1280000000000001
   266   4      3.1280000000000001      31.280000000000001      3.1280000000000001
   267   1      6.2560000000000002      31.280000000000001      3.1280000000000001
   268   4      9.3840000000000003      31.280000000000001      3.1280000000000001
   269   5                  12.512      31.280000000000001      3.1280000000000001
   270   2      15.640000000000001      31.280000000000001      3.1280000000000001
   271   3      18.768000000000001      31.280000000000001      3.1280000000000001
   272   3      21.896000000000001      31.280000000000001      3.1280000000000001
   273   4      25.024000000000001      31.280000000000001      3.1280000000000001
   274   4      28.152000000000001      31.280000000000001      3.1280000000000001
   275   4      31.280000000000001      31.280000000000001      3.1280000000000001
   276   2      34.408000000000001      31.280000000000001      3.1280000000000001
   277   1                       0      34.408000000000001      3.1280000000000001
   278   4      3.1280000000000001      34.408000000000001      3.1280000000000001
   279   1      6.2560000000000002      34.408000000000001      3.1280000000000001
   280   5      9.3840000000000003      34.408000000000001      3.1280000000000001
   281   2                  12.512      34.408000000000001      3.1280000000000001
   282   1      15.640000000000001      34.408000000000001      3.1280000000000001
   283   1      18.768000000000001      34.408000000000001      3.1280000000000001
   284   3      21.896000000000001      34.408000000000001      3.1280000000000001
   285   3      25.024000000000001      34.408000000000001      3.1280000000000001
   286   2      28.152000000000001      34.408000000000001      3.1280000000000001
   287   5      31.280000000000001      34.408000000000001      3.1280000000000001
   288   4      34.408000000000001      34.408000000000001      3.1280000000000001
   289   4                       0                       0      6.2560000000000002
   290   2      3.1280000000000001                       0      6.2560000000000002
   291   2      6.2560000000000002                       0      6.2560000000000002
   292   3      9.3840000000000003                       0      6.2560000000000002
   293   1                  12.512                       0      6.2560000000000002
   294   5      15.640000000000001                       0      6.2560000000000002
   295   1      18.768000000000001                       0      6.2560000000000002
   296   4      21.896000000000001                       0      6.2560000000000002
   297   1      25.024000000000001                       0      6.2560000000000002
   298   3      28.152000000000001                       0      6.2560000000000002
   299   5      31.280000000000001                       0      6.2560000000000002
   300   1      34.408000000000001                       0      6.2560000000000002
   301   2                       0      3.1280000000000001      6.2560000000000002
   302   4      3.1280000000000001      3.1280000000000001      6.2560000000000002
   303   4      6.2560000000000002      3.1280000000000001      6.2560000000000002
   304   5      9.3840000000000003      3.1280000000000001      6.2560000000000002
   305   2                  12.512      3.1280000000000001      6.2560000000000002
   306   2      15.640000000000001      3.1280000000000001      6.2560000000000002
   307   5      18.768000000000001      3.1280000000000001      6.2560000000000002
   308   1      21.896000000000001      3.1280000000000001      6.2560000000000002
   309   3      25.024000000000001      3.1280000000000001      6.2560000000000002
   310   4      28.152000000000001      3.1280000000000001      6.2560000000000002
   311   4      31.280000000000001      3.1280000000000001      6.2560000000000002
   312   4      34.408000000000001      3.1280000000000001      6.2560000000000002
   313   3                       0      6.2560000000000002      6.2560000000000002
   314   4      3.1280000000000001      6.2560000000000002      6.2560000000000002
   315   3      6.2560000000000002      6.2560000000000002      6.2560000000000002
   316   2      9.3840000000000003      6.2560000000000002      6.2560000000000002
   317   4                  12.512      6.2560000000000002      6.2560000000000002
   318   4      15.640000000000001      6.2560000000000002      6.2560000000000002
   319   4      18.768000000000001      6.2560000000000002      6.2560000000000002
   320   1      21.896000000000001      6.2560000000000002      6.2560000000000002
   321   5      25.024000000000001      6.2560000000000002      6.2560000000000002
   322   3      28.152000000000001      6.2560000000000002      6.2560000000000002
   323   5      31.280000000000001      6.2560000000000002      6.2560000000000002
   324   5      34.408000000000001      6.2560000000000002      6.2560000000000002
   325   1                       0      9.3840000000000003      6.2560000000000002
   326   3      3.1280000000000001      9.3840000000000003      6.2560000000000002
   327   1      6.2560000000000002      9.3840000000000003      6.2560000000000002
   328   3      9.3840000000000003      9.3840000000000003      6.2560000000000002
   329   2                  12.512      9.3840000000000003      6.2560000000000002
   330   1      15.640000000000001      9.3840000000000003      6.2560000000000002
   331   5      18.768000000000001      9.3840000000000003      6.2560000000000002
   332   3      21.896000000000001      9.3840000000000003      6.2560000000000002
   333   3      25.024000000000001      9.3840000000000003      6.2560000000000002
   334   4      28.152000000000001      9.3840000000000003      6.2560000000000002
   335   4      31.280000000000001      9.3840000000000003      6.2560000000000002
   336   3      34.408000000000001      9.3840000000000003      6.2560000000000002
   337   1                       0                  12.512      6.2560000000000002
   338   5      3.1280000000000001                  12.512      6.2560000000000002
   339   1      6.2560000000000002                  12.512      6.2560000000000002
   340   4      9.3840000000000003                  12.512      6.2560000000000002
   341   3                  12.512                  12.512      6.2560000000000002
   342   5      15.640000000000001                  12.512      6.2560000000000002
   343   4      18.768000000000001                  12.512      6.2560000000000002
   344   3      21.896000000000001                  12.512      6.2560000000000002
   345   4      25.024000000000001                  12.512      6.2560000000000002
   346   1      28.152000000000001                  12.512      6.2560000000000002
   347   3      31.280000000000001                  12.512      6.2560000000000002
   348   2      34.408000000000001                  12.512      6.2560000000000002
   349   1                       0      15.640000000000001      6.2560000000000002
   350   5      3.1280000000000001      15.640000000000001      6.2560000000000002
   351   2      6.2560000000000002      15.640000000000001      6.2560000000000002
   352   4      9.3840000000000003      15.640000000000001      6.2560000000000002
   353   4                  12.512      15.640000000000001      6.2560000000000002
   354   1      15.640000000000001      15.640000000000001      6.2560000000000002
   355   1      18.768000000000001      15.640000000000001      6.2560000000000002
   356   4      21.896000000000001      15.640000000000001      6.2560000000000002
   357   3      25.024000000000001      15.640000000000001      6.2560000000000002
   358   1      28.152000000000001      15.640000000000001      6.2560000000000002
   359   3      31.280000000000001      15.640000000000001      6.2560000000000002