./HEA/HEA_I.lmp (written by ASE) 

3456 	 atoms 
5  atom types
0.0      37.536000000000001  xlo xhi
0.0      37.536000000000001  ylo yhi
0.0      37.536000000000001  zlo zhi


Atoms 

     1   1                       0                       0                       0
     2   2      3.1280000000000001                       0                       0
     3   4      6.2560000000000002                       0                       0
     4   1      9.3840000000000003                       0                       0
     5   5                  12.512                       0                       0
     6   5      15.640000000000001                       0                       0
     7   5      18.768000000000001                       0                       0
     8   2      21.896000000000001                       0                       0
     9   1      25.024000000000001                       0                       0
    10   5      28.152000000000001                       0                       0
    11   5      31.280000000000001                       0                       0
    12   4      34.408000000000001                       0                       0
    13   3                       0      3.1280000000000001                       0
    14   3      3.1280000000000001      3.1280000000000001                       0
    15   2      6.2560000000000002      3.1280000000000001                       0
    16   5      9.3840000000000003      3.1280000000000001                       0
    17   4                  12.512      3.1280000000000001                       0
    18   2      15.640000000000001      3.1280000000000001                       0
    19   2      18.768000000000001      3.1280000000000001                       0
    20   2      21.896000000000001      3.1280000000000001                       0
    21   3      25.024000000000001      3.1280000000000001                       0
    22   5      28.152000000000001      3.1280000000000001                       0
    23   1      31.280000000000001      3.1280000000000001                       0
    24   3      34.408000000000001      3.1280000000000001                       0
    25   5                       0      6.2560000000000002                       0
    26   1      3.1280000000000001      6.2560000000000002                       0
    27   5      6.2560000000000002      6.2560000000000002                       0
    28   4      9.3840000000000003      6.2560000000000002                       0
    29   3                  12.512      6.2560000000000002                       0
    30   2      15.640000000000001      6.2560000000000002                       0
    31   3      18.768000000000001      6.2560000000000002                       0
    32   3      21.896000000000001      6.2560000000000002                       0
    33   3      25.024000000000001      6.2560000000000002                       0
    34   4      28.152000000000001      6.2560000000000002                       0
    35   4      31.280000000000001      6.2560000000000002                       0
    36   1      34.408000000000001      6.2560000000000002                       0
    37   1                       0      9.3840000000000003                       0
    38   1      3.1280000000000001      9.3840000000000003                       0
    39   1      6.2560000000000002      9.3840000000000003                       0
    40   1      9.3840000000000003      9.3840000000000003                       0
    41   2                  12.512      9.3840000000000003                       0
    42   3      15.640000000000001      9.3840000000000003                       0
    43   3      18.768000000000001      9.3840000000000003                       0
    44   4      21.896000000000001      9.3840000000000003                       0
    45   3      25.024000000000001      9.3840000000000003                       0
    46   2      28.152000000000001      9.3840000000000003                       0
    47   1      31.280000000000001      9.3840000000000003                       0
    48   3      34.408000000000001      9.3840000000000003                       0
    49   1                       0                  12.512                       0
    50   3      3.1280000000000001                  12.512                       0
    51   5      6.2560000000000002                  12.512                       0
    52   3      9.3840000000000003                  12.512                       0
    53   3                  12.512                  12.512                       0
    54   5      15.640000000000001                  12.512                       0
    55   5      18.768000000000001                  12.512                       0
    56   1      21.896000000000001                  12.512                       0
    57   1      25.024000000000001                  12.512                       0
    58   5      28.152000000000001                  12.512                       0
    59   1      31.280000000000001                  12.512                       0
    60   4      34.408000000000001                  12.512                       0
    61   1                       0      15.640000000000001                       0
    62   1      3.1280000000000001      15.640000000000001                       0
    63   5      6.2560000000000002      15.640000000000001                       0
    64   5      9.3840000000000003      15.640000000000001                       0
    65   3                  12.512      15.640000000000001                       0
    66   3      15.640000000000001      15.640000000000001                       0
    67   2      18.768000000000001      15.640000000000001                       0
    68   3      21.896000000000001      15.640000000000001                       0
    69   1      25.024000000000001      15.640000000000001                       0
    70   3      28.152000000000001      15.640000000000001                       0
    71   5      31.280000000000001      15.640000000000001                       0
    72   1      34.408000000000001      15.640000000000001                       0
    73   3                       0      18.768000000000001                       0
    74   3      3.1280000000000001      18.768000000000001                       0
    75   5      6.2560000000000002      18.768000000000001                       0
    76   3      9.3840000000000003      18.768000000000001                       0
    77   1                  12.512      18.768000000000001                       0
    78   4      15.640000000000001      18.768000000000001                       0
    79   3      18.768000000000001      18.768000000000001                       0
    80   1      21.896000000000001      18.768000000000001                       0
    81   5      25.024000000000001      18.768000000000001                       0
    82   4      28.152000000000001      18.768000000000001                       0
    83   4      31.280000000000001      18.768000000000001                       0
    84   1      34.408000000000001      18.768000000000001                       0
    85   5                       0      21.896000000000001                       0
    86   3      3.1280000000000001      21.896000000000001                       0
    87   2      6.2560000000000002      21.896000000000001                       0
    88   4      9.3840000000000003      21.896000000000001                       0
    89   2                  12.512      21.896000000000001                       0
    90   2      15.640000000000001      21.896000000000001                       0
    91   3      18.768000000000001      21.896000000000001                       0
    92   2      21.896000000000001      21.896000000000001                       0
    93   4      25.024000000000001      21.896000000000001                       0
    94   4      28.152000000000001      21.896000000000001                       0
    95   3      31.280000000000001      21.896000000000001                       0
    96   5      34.408000000000001      21.896000000000001                       0
    97   5                       0      25.024000000000001                       0
    98   1      3.1280000000000001      25.024000000000001                       0
    99   1      6.2560000000000002      25.024000000000001                       0
   100   5      9.3840000000000003      25.024000000000001                       0
   101   1                  12.512      25.024000000000001                       0
   102   2      15.640000000000001      25.024000000000001                       0
   103   2      18.768000000000001      25.024000000000001                       0
   104   4      21.896000000000001      25.024000000000001                       0
   105   1      25.024000000000001      25.024000000000001                       0
   106   4      28.152000000000001      25.024000000000001                       0
   107   2      31.280000000000001      25.024000000000001                       0
   108   2      34.408000000000001      25.024000000000001                       0
   109   1                       0      28.152000000000001                       0
   110   1      3.1280000000000001      28.152000000000001                       0
   111   3      6.2560000000000002      28.152000000000001                       0
   112   1      9.3840000000000003      28.152000000000001                       0
   113   3                  12.512      28.152000000000001                       0
   114   4      15.640000000000001      28.152000000000001                       0
   115   2      18.768000000000001      28.152000000000001                       0
   116   4      21.896000000000001      28.152000000000001                       0
   117   5      25.024000000000001      28.152000000000001                       0
   118   4      28.152000000000001      28.152000000000001                       0
   119   5      31.280000000000001      28.152000000000001                       0
   120   5      34.408000000000001      28.152000000000001                       0
   121   1                       0      31.280000000000001                       0
   122   1      3.1280000000000001      31.280000000000001                       0
   123   4      6.2560000000000002      31.280000000000001                       0
   124   5      9.3840000000000003      31.280000000000001                       0
   125   3                  12.512      31.280000000000001                       0
   126   3      15.640000000000001      31.280000000000001                       0
   127   1      18.768000000000001      31.280000000000001                       0
   128   3      21.896000000000001      31.280000000000001                       0
   129   1      25.024000000000001      31.280000000000001                       0
   130   3      28.152000000000001      31.280000000000001                       0
   131   1      31.280000000000001      31.280000000000001                       0
   132   1      34.408000000000001      31.280000000000001                       0
   133   5                       0      34.408000000000001                       0
   134   1      3.1280000000000001      34.408000000000001                       0
   135   1      6.2560000000000002      34.408000000000001                       0
   136   1      9.3840000000000003      34.408000000000001                       0
   137   3                  12.512      34.408000000000001                       0
   138   1      15.640000000000001      34.408000000000001                       0
   139   2      18.768000000000001      34.408000000000001                       0
   140   2      21.896000000000001      34.408000000000001                       0
   141   5      25.024000000000001      34.408000000000001                       0
   142   1      28.152000000000001      34.408000000000001                       0
   143   3      31.280000000000001      34.408000000000001                       0
   144   5      34.408000000000001      34.408000000000001                       0
   145   3                       0                       0      3.1280000000000001
   146   1      3.1280000000000001                       0      3.1280000000000001
   147   5      6.2560000000000002                       0      3.1280000000000001
   148   5      9.3840000000000003                       0      3.1280000000000001
   149   4                  12.512                       0      3.1280000000000001
   150   4      15.640000000000001                       0      3.1280000000000001
   151   5      18.768000000000001                       0      3.1280000000000001
   152   1      21.896000000000001                       0      3.1280000000000001
   153   5      25.024000000000001                       0      3.1280000000000001
   154   3      28.152000000000001                       0      3.1280000000000001
   155   4      31.280000000000001                       0      3.1280000000000001
   156   1      34.408000000000001                       0      3.1280000000000001
   157   5                       0      3.1280000000000001      3.1280000000000001
   158   1      3.1280000000000001      3.1280000000000001      3.1280000000000001
   159   1      6.2560000000000002      3.1280000000000001      3.1280000000000001
   160   2      9.3840000000000003      3.1280000000000001      3.1280000000000001
   161   5                  12.512      3.1280000000000001      3.1280000000000001
   162   2      15.640000000000001      3.1280000000000001      3.1280000000000001
   163   3      18.768000000000001      3.1280000000000001      3.1280000000000001
   164   2      21.896000000000001      3.1280000000000001      3.1280000000000001
   165   1      25.024000000000001      3.1280000000000001      3.1280000000000001
   166   2      28.152000000000001      3.1280000000000001      3.1280000000000001
   167   1      31.280000000000001      3.1280000000000001      3.1280000000000001
   168   5      34.408000000000001      3.1280000000000001      3.1280000000000001
   169   5                       0      6.2560000000000002      3.1280000000000001
   170   5      3.1280000000000001      6.2560000000000002      3.1280000000000001
   171   3      6.2560000000000002      6.2560000000000002      3.1280000000000001
   172   2      9.3840000000000003      6.2560000000000002      3.1280000000000001
   173   5                  12.512      6.2560000000000002      3.1280000000000001
   174   4      15.640000000000001      6.2560000000000002      3.1280000000000001
   175   5      18.768000000000001      6.2560000000000002      3.1280000000000001
   176   2      21.896000000000001      6.2560000000000002      3.1280000000000001
   177   3      25.024000000000001      6.2560000000000002      3.1280000000000001
   178   3      28.152000000000001      6.2560000000000002      3.1280000000000001
   179   4      31.280000000000001      6.2560000000000002      3.1280000000000001
   180   4      34.408000000000001      6.2560000000000002      3.1280000000000001
   181   5                       0      9.3840000000000003      3.1280000000000001
   182   5      3.1280000000000001      9.3840000000000003      3.1280000000000001
   183   1      6.2560000000000002      9.3840000000000003      3.1280000000000001
   184   4      9.3840000000000003      9.3840000000000003      3.1280000000000001
   185   4                  12.512      9.3840000000000003      3.1280000000000001
   186   5      15.640000000000001      9.3840000000000003      3.1280000000000001
   187   4      18.768000000000001      9.3840000000000003      3.1280000000000001
   188   2      21.896000000000001      9.3840000000000003      3.1280000000000001
   189   1      25.024000000000001      9.3840000000000003      3.1280000000000001
   190   5      28.152000000000001      9.3840000000000003      3.1280000000000001
   191   1      31.280000000000001      9.3840000000000003      3.1280000000000001
   192   1      34.408000000000001      9.3840000000000003      3.1280000000000001
   193   1                       0                  12.512      3.1280000000000001
   194   1      3.1280000000000001                  12.512      3.1280000000000001
   195   5      6.2560000000000002                  12.512      3.1280000000000001
   196   3      9.3840000000000003                  12.512      3.1280000000000001
   197   3                  12.512                  12.512      3.1280000000000001
   198   2      15.640000000000001                  12.512      3.1280000000000001
   199   2      18.768000000000001                  12.512      3.1280000000000001
   200   1      21.896000000000001                  12.512      3.1280000000000001
   201   5      25.024000000000001                  12.512      3.1280000000000001
   202   2      28.152000000000001                  12.512      3.1280000000000001
   203   4      31.280000000000001                  12.512      3.1280000000000001
   204   3      34.408000000000001                  12.512      3.1280000000000001
   205   1                       0      15.640000000000001      3.1280000000000001
   206   2      3.1280000000000001      15.640000000000001      3.1280000000000001
   207   5      6.2560000000000002      15.640000000000001      3.1280000000000001
   208   3      9.3840000000000003      15.640000000000001      3.1280000000000001
   209   5                  12.512      15.640000000000001      3.1280000000000001
   210   1      15.640000000000001      15.640000000000001      3.1280000000000001
   211   2      18.768000000000001      15.640000000000001      3.1280000000000001
   212   3      21.896000000000001      15.640000000000001      3.1280000000000001
   213   2      25.024000000000001      15.640000000000001      3.1280000000000001
   214   3      28.152000000000001      15.640000000000001      3.1280000000000001
   215   1      31.280000000000001      15.640000000000001      3.1280000000000001
   216   3      34.408000000000001      15.640000000000001      3.1280000000000001
   217   3                       0      18.768000000000001      3.1280000000000001
   218   1      3.1280000000000001      18.768000000000001      3.1280000000000001
   219   3      6.2560000000000002      18.768000000000001      3.1280000000000001
   220   3      9.3840000000000003      18.768000000000001      3.1280000000000001
   221   1                  12.512      18.768000000000001      3.1280000000000001
   222   2      15.640000000000001      18.768000000000001      3.1280000000000001
   223   1      18.768000000000001      18.768000000000001      3.1280000000000001
   224   5      21.896000000000001      18.768000000000001      3.1280000000000001
   225   5      25.024000000000001      18.768000000000001      3.1280000000000001
   226   5      28.152000000000001      18.768000000000001      3.1280000000000001
   227   2      31.280000000000001      18.768000000000001      3.1280000000000001
   228   5      34.408000000000001      18.768000000000001      3.1280000000000001
   229   5                       0      21.896000000000001      3.1280000000000001
   230   4      3.1280000000000001      21.896000000000001      3.1280000000000001
   231   1      6.2560000000000002      21.896000000000001      3.1280000000000001
   232   3      9.3840000000000003      21.896000000000001      3.1280000000000001
   233   3                  12.512      21.896000000000001      3.1280000000000001
   234   3      15.640000000000001      21.896000000000001      3.1280000000000001
   235   5      18.768000000000001      21.896000000000001      3.1280000000000001
   236   5      21.896000000000001      21.896000000000001      3.1280000000000001
   237   4      25.024000000000001      21.896000000000001      3.1280000000000001
   238   5      28.152000000000001      21.896000000000001      3.1280000000000001
   239   1      31.280000000000001      21.896000000000001      3.1280000000000001
   240   4      34.408000000000001      21.896000000000001      3.1280000000000001
   241   3                       0      25.024000000000001      3.1280000000000001
   242   1      3.1280000000000001      25.024000000000001      3.1280000000000001
   243   3      6.2560000000000002      25.024000000000001      3.1280000000000001
   244   5      9.3840000000000003      25.024000000000001      3.1280000000000001
   245   1                  12.512      25.024000000000001      3.1280000000000001
   246   1      15.640000000000001      25.024000000000001      3.1280000000000001
   247   2      18.768000000000001      25.024000000000001      3.1280000000000001
   248   5      21.896000000000001      25.024000000000001      3.1280000000000001
   249   5      25.024000000000001      25.024000000000001      3.1280000000000001
   250   3      28.152000000000001      25.024000000000001      3.1280000000000001
   251   3      31.280000000000001      25.024000000000001      3.1280000000000001
   252   4      34.408000000000001      25.024000000000001      3.1280000000000001
   253   1                       0      28.152000000000001      3.1280000000000001
   254   1      3.1280000000000001      28.152000000000001      3.1280000000000001
   255   1      6.2560000000000002      28.152000000000001      3.1280000000000001
   256   2      9.3840000000000003      28.152000000000001      3.1280000000000001
   257   2                  12.512      28.152000000000001      3.1280000000000001
   258   4      15.640000000000001      28.152000000000001      3.1280000000000001
   259   4      18.768000000000001      28.152000000000001      3.1280000000000001
   260   1      21.896000000000001      28.152000000000001      3.1280000000000001
   261   3      25.024000000000001      28.152000000000001      3.1280000000000001
   262   3      28.152000000000001      28.152000000000001      3.1280000000000001
   263   5      31.280000000000001      28.152000000000001      3.1280000000000001
   264   3      34.408000000000001      28.152000000000001      3.1280000000000001
   265   3                       0      31.280000000000001      3.1280000000000001
   266   5      3.1280000000000001      31.280000000000001      3.1280000000000001
   267   4      6.2560000000000002      31.280000000000001      3.1280000000000001
   268   1      9.3840000000000003      31.280000000000001      3.1280000000000001
   269   4                  12.512      31.280000000000001      3.1280000000000001
   270   1      15.640000000000001      31.280000000000001      3.1280000000000001
   271   3      18.768000000000001      31.280000000000001      3.1280000000000001
   272   3      21.896000000000001      31.280000000000001      3.1280000000000001
   273   3      25.024000000000001      31.280000000000001      3.1280000000000001
   274   3      28.152000000000001      31.280000000000001      3.1280000000000001
   275   3      31.280000000000001      31.280000000000001      3.1280000000000001
   276   4      34.408000000000001      31.280000000000001      3.1280000000000001
   277   1                       0      34.408000000000001      3.1280000000000001
   278   5      3.1280000000000001      34.408000000000001      3.1280000000000001
   279   3      6.2560000000000002      34.408000000000001      3.1280000000000001
   280   4      9.3840000000000003      34.408000000000001      3.1280000000000001
   281   5                  12.512      34.408000000000001      3.1280000000000001
   282   3      15.640000000000001      34.408000000000001      3.1280000000000001
   283   5      18.768000000000001      34.408000000000001      3.1280000000000001
   284   2      21.896000000000001      34.408000000000001      3.1280000000000001
   285   5      25.024000000000001      34.408000000000001      3.1280000000000001
   286   4      28.152000000000001      34.408000000000001      3.1280000000000001
   287   5      31.280000000000001      34.408000000000001      3.1280000000000001
   288   5      34.408000000000001      34.408000000000001      3.1280000000000001
   289   1                       0                       0      6.2560000000000002
   290   5      3.1280000000000001                       0      6.2560000000000002
   291   1      6.2560000000000002                       0      6.2560000000000002
   292   1      9.3840000000000003                       0      6.2560000000000002
   293   3                  12.512                       0      6.2560000000000002
   294   1      15.640000000000001                       0      6.2560000000000002
   295   4      18.768000000000001                       0      6.2560000000000002
   296   5      21.896000000000001                       0      6.2560000000000002
   297   2      25.024000000000001                       0      6.2560000000000002
   298   5      28.152000000000001                       0      6.2560000000000002
   299   4      31.280000000000001                       0      6.2560000000000002
   300   3      34.408000000000001                       0      6.2560000000000002
   301   5                       0      3.1280000000000001      6.2560000000000002
   302   2      3.1280000000000001      3.1280000000000001      6.2560000000000002
   303   5      6.2560000000000002      3.1280000000000001      6.2560000000000002
   304   2      9.3840000000000003      3.1280000000000001      6.2560000000000002
   305   3                  12.512      3.1280000000000001      6.2560000000000002
   306   1      15.640000000000001      3.1280000000000001      6.2560000000000002
   307   4      18.768000000000001      3.1280000000000001      6.2560000000000002
   308   2      21.896000000000001      3.1280000000000001      6.2560000000000002
   309   3      25.024000000000001      3.1280000000000001      6.2560000000000002
   310   3      28.152000000000001      3.1280000000000001      6.2560000000000002
   311   5      31.280000000000001      3.1280000000000001      6.2560000000000002
   312   1      34.408000000000001      3.1280000000000001      6.2560000000000002
   313   4                       0      6.2560000000000002      6.2560000000000002
   314   1      3.1280000000000001      6.2560000000000002      6.2560000000000002
   315   4      6.2560000000000002      6.2560000000000002      6.2560000000000002
   316   4      9.3840000000000003      6.2560000000000002      6.2560000000000002
   317   4                  12.512      6.2560000000000002      6.2560000000000002
   318   1      15.640000000000001      6.2560000000000002      6.2560000000000002
   319   1      18.768000000000001      6.2560000000000002      6.2560000000000002
   320   4      21.896000000000001      6.2560000000000002      6.2560000000000002
   321   4      25.024000000000001      6.2560000000000002      6.2560000000000002
   322   3      28.152000000000001      6.2560000000000002      6.2560000000000002
   323   1      31.280000000000001      6.2560000000000002      6.2560000000000002
   324   2      34.408000000000001      6.2560000000000002      6.2560000000000002
   325   3                       0      9.3840000000000003      6.2560000000000002
   326   1      3.1280000000000001      9.3840000000000003      6.2560000000000002
   327   5      6.2560000000000002      9.3840000000000003      6.2560000000000002
   328   5      9.3840000000000003      9.3840000000000003      6.2560000000000002
   329   1                  12.512      9.3840000000000003      6.2560000000000002
   330   4      15.640000000000001      9.3840000000000003      6.2560000000000002
   331   4      18.768000000000001      9.3840000000000003      6.2560000000000002
   332   5      21.896000000000001      9.3840000000000003      6.2560000000000002
   333   3      25.024000000000001      9.3840000000000003      6.2560000000000002
   334   3      28.152000000000001      9.3840000000000003      6.2560000000000002
   335   1      31.280000000000001      9.3840000000000003      6.2560000000000002
   336   1      34.408000000000001      9.3840000000000003      6.2560000000000002
   337   1                       0                  12.512      6.2560000000000002
   338   4      3.1280000000000001                  12.512      6.2560000000000002
   339   4      6.2560000000000002                  12.512      6.2560000000000002
   340   1      9.3840000000000003                  12.512      6.2560000000000002
   341   2                  12.512                  12.512      6.2560000000000002
   342   1      15.640000000000001                  12.512      6.2560000000000002
   343   1      18.768000000000001                  12.512      6.2560000000000002
   344   2      21.896000000000001                  12.512      6.2560000000000002
   345   2      25.024000000000001                  12.512      6.2560000000000002
   346   4      28.152000000000001                  12.512      6.2560000000000002
   347   5      31.280000000000001                  12.512      6.2560000000000002
   348   2      34.408000000000001                  12.512      6.2560000000000002
   349   5                       0      15.640000000000001      6.2560000000000002
   350   1      3.1280000000000001      15.640000000000001      6.2560000000000002
   351   3      6.2560000000000002      15.640000000000001      6.2560000000000002
   352   2      9.3840000000000003      15.640000000000001      6.2560000000000002
   353   5                  12.512      15.640000000000001      6.2560000000000002
   354   1      15.640000000000001      15.640000000000001      6.2560000000000002
   355   1      18.768000000000001      15.640000000000001      6.2560000000000002
   356   3      21.896000000000001      15.640000000000001      6.2560000000000002
   357   3      25.024000000000001      15.640000000000001      6.2560000000000002
   358   3      28.152000000000001      15.640000000000001      6.2560000000000002
   359   5      31.280000000000001      15.640000000000001      6.2560000000000002