./HEA/HEA_I.lmp (written by ASE) 

3456 	 atoms 
5  atom types
0.0      37.536000000000001  xlo xhi
0.0      37.536000000000001  ylo yhi
0.0      37.536000000000001  zlo zhi


Atoms 

     1   5                       0                       0                       0
     2   2      3.1280000000000001                       0                       0
     3   4      6.2560000000000002                       0                       0
     4   3      9.3840000000000003                       0                       0
     5   5                  12.512                       0                       0
     6   5      15.640000000000001                       0                       0
     7   1      18.768000000000001                       0                       0
     8   5      21.896000000000001                       0                       0
     9   3      25.024000000000001                       0                       0
    10   1      28.152000000000001                       0                       0
    11   5      31.280000000000001                       0                       0
    12   1      34.408000000000001                       0                       0
    13   3                       0      3.1280000000000001                       0
    14   4      3.1280000000000001      3.1280000000000001                       0
    15   3      6.2560000000000002      3.1280000000000001                       0
    16   1      9.3840000000000003      3.1280000000000001                       0
    17   5                  12.512      3.1280000000000001                       0
    18   5      15.640000000000001      3.1280000000000001                       0
    19   3      18.768000000000001      3.1280000000000001                       0
    20   1      21.896000000000001      3.1280000000000001                       0
    21   4      25.024000000000001      3.1280000000000001                       0
    22   2      28.152000000000001      3.1280000000000001                       0
    23   3      31.280000000000001      3.1280000000000001                       0
    24   3      34.408000000000001      3.1280000000000001                       0
    25   5                       0      6.2560000000000002                       0
    26   3      3.1280000000000001      6.2560000000000002                       0
    27   3      6.2560000000000002      6.2560000000000002                       0
    28   3      9.3840000000000003      6.2560000000000002                       0
    29   5                  12.512      6.2560000000000002                       0
    30   2      15.640000000000001      6.2560000000000002                       0
    31   1      18.768000000000001      6.2560000000000002                       0
    32   2      21.896000000000001      6.2560000000000002                       0
    33   4      25.024000000000001      6.2560000000000002                       0
    34   5      28.152000000000001      6.2560000000000002                       0
    35   1      31.280000000000001      6.2560000000000002                       0
    36   5      34.408000000000001      6.2560000000000002                       0
    37   3                       0      9.3840000000000003                       0
    38   2      3.1280000000000001      9.3840000000000003                       0
    39   3      6.2560000000000002      9.3840000000000003                       0
    40   1      9.3840000000000003      9.3840000000000003                       0
    41   5                  12.512      9.3840000000000003                       0
    42   4      15.640000000000001      9.3840000000000003                       0
    43   1      18.768000000000001      9.3840000000000003                       0
    44   3      21.896000000000001      9.3840000000000003                       0
    45   2      25.024000000000001      9.3840000000000003                       0
    46   2      28.152000000000001      9.3840000000000003                       0
    47   5      31.280000000000001      9.3840000000000003                       0
    48   1      34.408000000000001      9.3840000000000003                       0
    49   3                       0                  12.512                       0
    50   2      3.1280000000000001                  12.512                       0
    51   3      6.2560000000000002                  12.512                       0
    52   2      9.3840000000000003                  12.512                       0
    53   2                  12.512                  12.512                       0
    54   5      15.640000000000001                  12.512                       0
    55   4      18.768000000000001                  12.512                       0
    56   5      21.896000000000001                  12.512                       0
    57   4      25.024000000000001                  12.512                       0
    58   3      28.152000000000001                  12.512                       0
    59   2      31.280000000000001                  12.512                       0
    60   1      34.408000000000001                  12.512                       0
    61   3                       0      15.640000000000001                       0
    62   1      3.1280000000000001      15.640000000000001                       0
    63   3      6.2560000000000002      15.640000000000001                       0
    64   4      9.3840000000000003      15.640000000000001                       0
    65   1                  12.512      15.640000000000001                       0
    66   2      15.640000000000001      15.640000000000001                       0
    67   3      18.768000000000001      15.640000000000001                       0
    68   5      21.896000000000001      15.640000000000001                       0
    69   1      25.024000000000001      15.640000000000001                       0
    70   2      28.152000000000001      15.640000000000001                       0
    71   1      31.280000000000001      15.640000000000001                       0
    72   5      34.408000000000001      15.640000000000001                       0
    73   5                       0      18.768000000000001                       0
    74   3      3.1280000000000001      18.768000000000001                       0
    75   2      6.2560000000000002      18.768000000000001                       0
    76   1      9.3840000000000003      18.768000000000001                       0
    77   3                  12.512      18.768000000000001                       0
    78   3      15.640000000000001      18.768000000000001                       0
    79   4      18.768000000000001      18.768000000000001                       0
    80   4      21.896000000000001      18.768000000000001                       0
    81   1      25.024000000000001      18.768000000000001                       0
    82   1      28.152000000000001      18.768000000000001                       0
    83   2      31.280000000000001      18.768000000000001                       0
    84   3      34.408000000000001      18.768000000000001                       0
    85   1                       0      21.896000000000001                       0
    86   3      3.1280000000000001      21.896000000000001                       0
    87   4      6.2560000000000002      21.896000000000001                       0
    88   4      9.3840000000000003      21.896000000000001                       0
    89   5                  12.512      21.896000000000001                       0
    90   4      15.640000000000001      21.896000000000001                       0
    91   5      18.768000000000001      21.896000000000001                       0
    92   2      21.896000000000001      21.896000000000001                       0
    93   4      25.024000000000001      21.896000000000001                       0
    94   4      28.152000000000001      21.896000000000001                       0
    95   2      31.280000000000001      21.896000000000001                       0
    96   2      34.408000000000001      21.896000000000001                       0
    97   4                       0      25.024000000000001                       0
    98   1      3.1280000000000001      25.024000000000001                       0
    99   3      6.2560000000000002      25.024000000000001                       0
   100   5      9.3840000000000003      25.024000000000001                       0
   101   2                  12.512      25.024000000000001                       0
   102   5      15.640000000000001      25.024000000000001                       0
   103   4      18.768000000000001      25.024000000000001                       0
   104   3      21.896000000000001      25.024000000000001                       0
   105   1      25.024000000000001      25.024000000000001                       0
   106   3      28.152000000000001      25.024000000000001                       0
   107   1      31.280000000000001      25.024000000000001                       0
   108   3      34.408000000000001      25.024000000000001                       0
   109   1                       0      28.152000000000001                       0
   110   3      3.1280000000000001      28.152000000000001                       0
   111   3      6.2560000000000002      28.152000000000001                       0
   112   5      9.3840000000000003      28.152000000000001                       0
   113   4                  12.512      28.152000000000001                       0
   114   3      15.640000000000001      28.152000000000001                       0
   115   4      18.768000000000001      28.152000000000001                       0
   116   4      21.896000000000001      28.152000000000001                       0
   117   1      25.024000000000001      28.152000000000001                       0
   118   3      28.152000000000001      28.152000000000001                       0
   119   4      31.280000000000001      28.152000000000001                       0
   120   5      34.408000000000001      28.152000000000001                       0
   121   1                       0      31.280000000000001                       0
   122   4      3.1280000000000001      31.280000000000001                       0
   123   5      6.2560000000000002      31.280000000000001                       0
   124   3      9.3840000000000003      31.280000000000001                       0
   125   4                  12.512      31.280000000000001                       0
   126   3      15.640000000000001      31.280000000000001                       0
   127   3      18.768000000000001      31.280000000000001                       0
   128   5      21.896000000000001      31.280000000000001                       0
   129   3      25.024000000000001      31.280000000000001                       0
   130   1      28.152000000000001      31.280000000000001                       0
   131   4      31.280000000000001      31.280000000000001                       0
   132   1      34.408000000000001      31.280000000000001                       0
   133   1                       0      34.408000000000001                       0
   134   5      3.1280000000000001      34.408000000000001                       0
   135   2      6.2560000000000002      34.408000000000001                       0
   136   3      9.3840000000000003      34.408000000000001                       0
   137   4                  12.512      34.408000000000001                       0
   138   3      15.640000000000001      34.408000000000001                       0
   139   4      18.768000000000001      34.408000000000001                       0
   140   5      21.896000000000001      34.408000000000001                       0
   141   1      25.024000000000001      34.408000000000001                       0
   142   1      28.152000000000001      34.408000000000001                       0
   143   4      31.280000000000001      34.408000000000001                       0
   144   3      34.408000000000001      34.408000000000001                       0
   145   2                       0                       0      3.1280000000000001
   146   4      3.1280000000000001                       0      3.1280000000000001
   147   1      6.2560000000000002                       0      3.1280000000000001
   148   4      9.3840000000000003                       0      3.1280000000000001
   149   5                  12.512                       0      3.1280000000000001
   150   5      15.640000000000001                       0      3.1280000000000001
   151   2      18.768000000000001                       0      3.1280000000000001
   152   5      21.896000000000001                       0      3.1280000000000001
   153   5      25.024000000000001                       0      3.1280000000000001
   154   2      28.152000000000001                       0      3.1280000000000001
   155   5      31.280000000000001                       0      3.1280000000000001
   156   1      34.408000000000001                       0      3.1280000000000001
   157   5                       0      3.1280000000000001      3.1280000000000001
   158   1      3.1280000000000001      3.1280000000000001      3.1280000000000001
   159   4      6.2560000000000002      3.1280000000000001      3.1280000000000001
   160   1      9.3840000000000003      3.1280000000000001      3.1280000000000001
   161   4                  12.512      3.1280000000000001      3.1280000000000001
   162   1      15.640000000000001      3.1280000000000001      3.1280000000000001
   163   4      18.768000000000001      3.1280000000000001      3.1280000000000001
   164   1      21.896000000000001      3.1280000000000001      3.1280000000000001
   165   1      25.024000000000001      3.1280000000000001      3.1280000000000001
   166   4      28.152000000000001      3.1280000000000001      3.1280000000000001
   167   5      31.280000000000001      3.1280000000000001      3.1280000000000001
   168   1      34.408000000000001      3.1280000000000001      3.1280000000000001
   169   5                       0      6.2560000000000002      3.1280000000000001
   170   2      3.1280000000000001      6.2560000000000002      3.1280000000000001
   171   1      6.2560000000000002      6.2560000000000002      3.1280000000000001
   172   1      9.3840000000000003      6.2560000000000002      3.1280000000000001
   173   3                  12.512      6.2560000000000002      3.1280000000000001
   174   3      15.640000000000001      6.2560000000000002      3.1280000000000001
   175   5      18.768000000000001      6.2560000000000002      3.1280000000000001
   176   2      21.896000000000001      6.2560000000000002      3.1280000000000001
   177   1      25.024000000000001      6.2560000000000002      3.1280000000000001
   178   3      28.152000000000001      6.2560000000000002      3.1280000000000001
   179   3      31.280000000000001      6.2560000000000002      3.1280000000000001
   180   1      34.408000000000001      6.2560000000000002      3.1280000000000001
   181   2                       0      9.3840000000000003      3.1280000000000001
   182   1      3.1280000000000001      9.3840000000000003      3.1280000000000001
   183   1      6.2560000000000002      9.3840000000000003      3.1280000000000001
   184   1      9.3840000000000003      9.3840000000000003      3.1280000000000001
   185   5                  12.512      9.3840000000000003      3.1280000000000001
   186   2      15.640000000000001      9.3840000000000003      3.1280000000000001
   187   1      18.768000000000001      9.3840000000000003      3.1280000000000001
   188   2      21.896000000000001      9.3840000000000003      3.1280000000000001
   189   3      25.024000000000001      9.3840000000000003      3.1280000000000001
   190   2      28.152000000000001      9.3840000000000003      3.1280000000000001
   191   1      31.280000000000001      9.3840000000000003      3.1280000000000001
   192   1      34.408000000000001      9.3840000000000003      3.1280000000000001
   193   5                       0                  12.512      3.1280000000000001
   194   3      3.1280000000000001                  12.512      3.1280000000000001
   195   2      6.2560000000000002                  12.512      3.1280000000000001
   196   5      9.3840000000000003                  12.512      3.1280000000000001
   197   2                  12.512                  12.512      3.1280000000000001
   198   5      15.640000000000001                  12.512      3.1280000000000001
   199   2      18.768000000000001                  12.512      3.1280000000000001
   200   1      21.896000000000001                  12.512      3.1280000000000001
   201   3      25.024000000000001                  12.512      3.1280000000000001
   202   3      28.152000000000001                  12.512      3.1280000000000001
   203   5      31.280000000000001                  12.512      3.1280000000000001
   204   3      34.408000000000001                  12.512      3.1280000000000001
   205   5                       0      15.640000000000001      3.1280000000000001
   206   5      3.1280000000000001      15.640000000000001      3.1280000000000001
   207   3      6.2560000000000002      15.640000000000001      3.1280000000000001
   208   1      9.3840000000000003      15.640000000000001      3.1280000000000001
   209   1                  12.512      15.640000000000001      3.1280000000000001
   210   2      15.640000000000001      15.640000000000001      3.1280000000000001
   211   1      18.768000000000001      15.640000000000001      3.1280000000000001
   212   4      21.896000000000001      15.640000000000001      3.1280000000000001
   213   5      25.024000000000001      15.640000000000001      3.1280000000000001
   214   2      28.152000000000001      15.640000000000001      3.1280000000000001
   215   5      31.280000000000001      15.640000000000001      3.1280000000000001
   216   5      34.408000000000001      15.640000000000001      3.1280000000000001
   217   1                       0      18.768000000000001      3.1280000000000001
   218   4      3.1280000000000001      18.768000000000001      3.1280000000000001
   219   3      6.2560000000000002      18.768000000000001      3.1280000000000001
   220   2      9.3840000000000003      18.768000000000001      3.1280000000000001
   221   1                  12.512      18.768000000000001      3.1280000000000001
   222   1      15.640000000000001      18.768000000000001      3.1280000000000001
   223   2      18.768000000000001      18.768000000000001      3.1280000000000001
   224   4      21.896000000000001      18.768000000000001      3.1280000000000001
   225   4      25.024000000000001      18.768000000000001      3.1280000000000001
   226   4      28.152000000000001      18.768000000000001      3.1280000000000001
   227   3      31.280000000000001      18.768000000000001      3.1280000000000001
   228   4      34.408000000000001      18.768000000000001      3.1280000000000001
   229   3                       0      21.896000000000001      3.1280000000000001
   230   5      3.1280000000000001      21.896000000000001      3.1280000000000001
   231   3      6.2560000000000002      21.896000000000001      3.1280000000000001
   232   4      9.3840000000000003      21.896000000000001      3.1280000000000001
   233   3                  12.512      21.896000000000001      3.1280000000000001
   234   3      15.640000000000001      21.896000000000001      3.1280000000000001
   235   1      18.768000000000001      21.896000000000001      3.1280000000000001
   236   2      21.896000000000001      21.896000000000001      3.1280000000000001
   237   1      25.024000000000001      21.896000000000001      3.1280000000000001
   238   4      28.152000000000001      21.896000000000001      3.1280000000000001
   239   2      31.280000000000001      21.896000000000001      3.1280000000000001
   240   4      34.408000000000001      21.896000000000001      3.1280000000000001
   241   2                       0      25.024000000000001      3.1280000000000001
   242   5      3.1280000000000001      25.024000000000001      3.1280000000000001
   243   2      6.2560000000000002      25.024000000000001      3.1280000000000001
   244   3      9.3840000000000003      25.024000000000001      3.1280000000000001
   245   4                  12.512      25.024000000000001      3.1280000000000001
   246   1      15.640000000000001      25.024000000000001      3.1280000000000001
   247   4      18.768000000000001      25.024000000000001      3.1280000000000001
   248   5      21.896000000000001      25.024000000000001      3.1280000000000001
   249   3      25.024000000000001      25.024000000000001      3.1280000000000001
   250   2      28.152000000000001      25.024000000000001      3.1280000000000001
   251   2      31.280000000000001      25.024000000000001      3.1280000000000001
   252   2      34.408000000000001      25.024000000000001      3.1280000000000001
   253   5                       0      28.152000000000001      3.1280000000000001
   254   1      3.1280000000000001      28.152000000000001      3.1280000000000001
   255   2      6.2560000000000002      28.152000000000001      3.1280000000000001
   256   2      9.3840000000000003      28.152000000000001      3.1280000000000001
   257   1                  12.512      28.152000000000001      3.1280000000000001
   258   3      15.640000000000001      28.152000000000001      3.1280000000000001
   259   2      18.768000000000001      28.152000000000001      3.1280000000000001
   260   4      21.896000000000001      28.152000000000001      3.1280000000000001
   261   3      25.024000000000001      28.152000000000001      3.1280000000000001
   262   5      28.152000000000001      28.152000000000001      3.1280000000000001
   263   4      31.280000000000001      28.152000000000001      3.1280000000000001
   264   2      34.408000000000001      28.152000000000001      3.1280000000000001
   265   5                       0      31.280000000000001      3.1280000000000001
   266   5      3.1280000000000001      31.280000000000001      3.1280000000000001
   267   4      6.2560000000000002      31.280000000000001      3.1280000000000001
   268   4      9.3840000000000003      31.280000000000001      3.1280000000000001
   269   2                  12.512      31.280000000000001      3.1280000000000001
   270   5      15.640000000000001      31.280000000000001      3.1280000000000001
   271   3      18.768000000000001      31.280000000000001      3.1280000000000001
   272   1      21.896000000000001      31.280000000000001      3.1280000000000001
   273   5      25.024000000000001      31.280000000000001      3.1280000000000001
   274   2      28.152000000000001      31.280000000000001      3.1280000000000001
   275   4      31.280000000000001      31.280000000000001      3.1280000000000001
   276   5      34.408000000000001      31.280000000000001      3.1280000000000001
   277   2                       0      34.408000000000001      3.1280000000000001
   278   4      3.1280000000000001      34.408000000000001      3.1280000000000001
   279   1      6.2560000000000002      34.408000000000001      3.1280000000000001
   280   1      9.3840000000000003      34.408000000000001      3.1280000000000001
   281   1                  12.512      34.408000000000001      3.1280000000000001
   282   3      15.640000000000001      34.408000000000001      3.1280000000000001
   283   2      18.768000000000001      34.408000000000001      3.1280000000000001
   284   4      21.896000000000001      34.408000000000001      3.1280000000000001
   285   4      25.024000000000001      34.408000000000001      3.1280000000000001
   286   1      28.152000000000001      34.408000000000001      3.1280000000000001
   287   5      31.280000000000001      34.408000000000001      3.1280000000000001
   288   1      34.408000000000001      34.408000000000001      3.1280000000000001
   289   2                       0                       0      6.2560000000000002
   290   1      3.1280000000000001                       0      6.2560000000000002
   291   3      6.2560000000000002                       0      6.2560000000000002
   292   5      9.3840000000000003                       0      6.2560000000000002
   293   3                  12.512                       0      6.2560000000000002
   294   1      15.640000000000001                       0      6.2560000000000002
   295   3      18.768000000000001                       0      6.2560000000000002
   296   5      21.896000000000001                       0      6.2560000000000002
   297   4      25.024000000000001                       0      6.2560000000000002
   298   3      28.152000000000001                       0      6.2560000000000002
   299   3      31.280000000000001                       0      6.2560000000000002
   300   4      34.408000000000001                       0      6.2560000000000002
   301   3                       0      3.1280000000000001      6.2560000000000002
   302   4      3.1280000000000001      3.1280000000000001      6.2560000000000002
   303   4      6.2560000000000002      3.1280000000000001      6.2560000000000002
   304   2      9.3840000000000003      3.1280000000000001      6.2560000000000002
   305   3                  12.512      3.1280000000000001      6.2560000000000002
   306   1      15.640000000000001      3.1280000000000001      6.2560000000000002
   307   5      18.768000000000001      3.1280000000000001      6.2560000000000002
   308   1      21.896000000000001      3.1280000000000001      6.2560000000000002
   309   1      25.024000000000001      3.1280000000000001      6.2560000000000002
   310   1      28.152000000000001      3.1280000000000001      6.2560000000000002
   311   1      31.280000000000001      3.1280000000000001      6.2560000000000002
   312   2      34.408000000000001      3.1280000000000001      6.2560000000000002
   313   2                       0      6.2560000000000002      6.2560000000000002
   314   3      3.1280000000000001      6.2560000000000002      6.2560000000000002
   315   5      6.2560000000000002      6.2560000000000002      6.2560000000000002
   316   5      9.3840000000000003      6.2560000000000002      6.2560000000000002
   317   1                  12.512      6.2560000000000002      6.2560000000000002
   318   2      15.640000000000001      6.2560000000000002      6.2560000000000002
   319   1      18.768000000000001      6.2560000000000002      6.2560000000000002
   320   3      21.896000000000001      6.2560000000000002      6.2560000000000002
   321   1      25.024000000000001      6.2560000000000002      6.2560000000000002
   322   4      28.152000000000001      6.2560000000000002      6.2560000000000002
   323   3      31.280000000000001      6.2560000000000002      6.2560000000000002
   324   1      34.408000000000001      6.2560000000000002      6.2560000000000002
   325   3                       0      9.3840000000000003      6.2560000000000002
   326   1      3.1280000000000001      9.3840000000000003      6.2560000000000002
   327   1      6.2560000000000002      9.3840000000000003      6.2560000000000002
   328   4      9.3840000000000003      9.3840000000000003      6.2560000000000002
   329   5                  12.512      9.3840000000000003      6.2560000000000002
   330   3      15.640000000000001      9.3840000000000003      6.2560000000000002
   331   5      18.768000000000001      9.3840000000000003      6.2560000000000002
   332   3      21.896000000000001      9.3840000000000003      6.2560000000000002
   333   5      25.024000000000001      9.3840000000000003      6.2560000000000002
   334   1      28.152000000000001      9.3840000000000003      6.2560000000000002
   335   3      31.280000000000001      9.3840000000000003      6.2560000000000002
   336   5      34.408000000000001      9.3840000000000003      6.2560000000000002
   337   1                       0                  12.512      6.2560000000000002
   338   5      3.1280000000000001                  12.512      6.2560000000000002
   339   4      6.2560000000000002                  12.512      6.2560000000000002
   340   5      9.3840000000000003                  12.512      6.2560000000000002
   341   1                  12.512                  12.512      6.2560000000000002
   342   1      15.640000000000001                  12.512      6.2560000000000002
   343   5      18.768000000000001                  12.512      6.2560000000000002
   344   4      21.896000000000001                  12.512      6.2560000000000002
   345   1      25.024000000000001                  12.512      6.2560000000000002
   346   4      28.152000000000001                  12.512      6.2560000000000002
   347   4      31.280000000000001                  12.512      6.2560000000000002
   348   3      34.408000000000001                  12.512      6.2560000000000002
   349   3                       0      15.640000000000001      6.2560000000000002
   350   5      3.1280000000000001      15.640000000000001      6.2560000000000002
   351   5      6.2560000000000002      15.640000000000001      6.2560000000000002
   352   5      9.3840000000000003      15.640000000000001      6.2560000000000002
   353   2                  12.512      15.640000000000001      6.2560000000000002
   354   3      15.640000000000001      15.640000000000001      6.2560000000000002
   355   3      18.768000000000001      15.640000000000001      6.2560000000000002
   356   4      21.896000000000001      15.640000000000001      6.2560000000000002
   357   2      25.024000000000001      15.640000000000001      6.2560000000000002
   358   1      28.152000000000001      15.640000000000001      6.2560000000000002
   359   2      31.280000000000001      15.640000000000001      6.2560000000000002