 # Bcc NiTi alloy oriented X=[1-10], Y=[11-2], Z=[111].
  
       40500  atoms
           2  atom types
 
      0.000000000000      66.354900346546  xlo xhi
      0.000000000000     114.930058731387  ylo yhi
      0.000000000000      81.267823891132  zlo zhi
 
Masses
 
            1   58.69340000             # Ni
            2   47.86700000             # Ti
 
Atoms # atomic
 
         1    1        2.211830011552       3.831001957713       0.000000000000
         2    1        0.000000000000       5.108002610284       1.805951642025
         3    1        2.211830011552       6.385003262855       3.611903284050
         4    1        0.000000000000       0.000000000000       0.000000000000
         5    1        2.211830011552       1.277000652571       1.805951642025
         6    1        0.000000000000       2.554001305142       3.611903284050
         7    2        2.211830011552       6.385003262855       0.902975821013
         8    2        0.000000000000       2.554001305142       0.902975821013
         9    2        2.211830011552       3.831001957713       2.708927463038
        10    2        0.000000000000       5.108002610284       4.514879105063
        11    2        0.000000000000       0.000000000000       2.708927463038
        12    2        2.211830011552       1.277000652571       4.514879105063
        13    1        6.635490034655       3.831001957713       0.000000000000
        14    1        4.423660023103       5.108002610284       1.805951642025
        15    1        6.635490034655       6.385003262855       3.611903284050
        16    1        4.423660023103       0.000000000000       0.000000000000
        17    1        6.635490034655       1.277000652571       1.805951642025
        18    1        4.423660023103       2.554001305142       3.611903284050
        19    2        6.635490034655       6.385003262855       0.902975821013
        20    2        4.423660023103       2.554001305142       0.902975821013
        21    2        6.635490034655       3.831001957713       2.708927463038
        22    2        4.423660023103       5.108002610284       4.514879105063
        23    2        4.423660023103       0.000000000000       2.708927463038
        24    2        6.635490034655       1.277000652571       4.514879105063
        25    1       11.059150057758       3.831001957713       0.000000000000
        26    1        8.847320046206       5.108002610284       1.805951642025
        27    1       11.059150057758       6.385003262855       3.611903284050
        28    1        8.847320046206       0.000000000000       0.000000000000
        29    1       11.059150057758       1.277000652571       1.805951642025
        30    1        8.847320046206       2.554001305142       3.611903284050
        31    2       11.059150057758       6.385003262855       0.902975821013
        32    2        8.847320046206       2.554001305142       0.902975821013
        33    2       11.059150057758       3.831001957713       2.708927463038
        34    2        8.847320046206       5.108002610284       4.514879105063
        35    2        8.847320046206       0.000000000000       2.708927463038
        36    2       11.059150057758       1.277000652571       4.514879105063
        37    1       15.482810080861       3.831001957713       0.000000000000
        38    1       13.270980069309       5.108002610284       1.805951642025
        39    1       15.482810080861       6.385003262855       3.611903284050
        40    1       13.270980069309       0.000000000000       0.000000000000
        41    1       15.482810080861       1.277000652571       1.805951642025
        42    1       13.270980069309       2.554001305142       3.611903284050
        43    2       15.482810080861       6.385003262855       0.902975821013
        44    2       13.270980069309       2.554001305142       0.902975821013
        45    2       15.482810080861       3.831001957713       2.708927463038
        46    2       13.270980069309       5.108002610284       4.514879105063
        47    2       13.270980069309       0.000000000000       2.708927463038
        48    2       15.482810080861       1.277000652571       4.514879105063
        49    1       19.906470103964       3.831001957713       0.000000000000
        50    1       17.694640092412       5.108002610284       1.805951642025
        51    1       19.906470103964       6.385003262855       3.611903284050
        52    1       17.694640092412       0.000000000000       0.000000000000
        53    1       19.906470103964       1.277000652571       1.805951642025
        54    1       17.694640092412       2.554001305142       3.611903284050
        55    2       19.906470103964       6.385003262855       0.902975821013
        56    2       17.694640092412       2.554001305142       0.902975821013
        57    2       19.906470103964       3.831001957713       2.708927463038
        58    2       17.694640092412       5.108002610284       4.514879105063
        59    2       17.694640092412       0.000000000000       2.708927463038
        60    2       19.906470103964       1.277000652571       4.514879105063
        61    1       24.330130127067       3.831001957713       0.000000000000
        62    1       22.118300115515       5.108002610284       1.805951642025
        63    1       24.330130127067       6.385003262855       3.611903284050
        64    1       22.118300115515       0.000000000000       0.000000000000
        65    1       24.330130127067       1.277000652571       1.805951642025
        66    1       22.118300115515       2.554001305142       3.611903284050
        67    2       24.330130127067       6.385003262855       0.902975821013
        68    2       22.118300115515       2.554001305142       0.902975821013
        69    2       24.330130127067       3.831001957713       2.708927463038
        70    2       22.118300115515       5.108002610284       4.514879105063
        71    2       22.118300115515       0.000000000000       2.708927463038
        72    2       24.330130127067       1.277000652571       4.514879105063
        73    1       28.753790150170       3.831001957713       0.000000000000
        74    1       26.541960138618       5.108002610284       1.805951642025
        75    1       28.753790150170       6.385003262855       3.611903284050
        76    1       26.541960138618       0.000000000000       0.000000000000
        77    1       28.753790150170       1.277000652571       1.805951642025
        78    1       26.541960138618       2.554001305142       3.611903284050
        79    2       28.753790150170       6.385003262855       0.902975821013
        80    2       26.541960138618       2.554001305142       0.902975821013
        81    2       28.753790150170       3.831001957713       2.708927463038
        82    2       26.541960138618       5.108002610284       4.514879105063
        83    2       26.541960138618       0.000000000000       2.708927463038
        84    2       28.753790150170       1.277000652571       4.514879105063
        85    1       33.177450173273       3.831001957713       0.000000000000
        86    1       30.965620161721       5.108002610284       1.805951642025
        87    1       33.177450173273       6.385003262855       3.611903284050
        88    1       30.965620161721       0.000000000000       0.000000000000
        89    1       33.177450173273       1.277000652571       1.805951642025
        90    1       30.965620161721       2.554001305142       3.611903284050
        91    2       33.177450173273       6.385003262855       0.902975821013
        92    2       30.965620161721       2.554001305142       0.902975821013
        93    2       33.177450173273       3.831001957713       2.708927463038
        94    2       30.965620161721       5.108002610284       4.514879105063
        95    2       30.965620161721       0.000000000000       2.708927463038
        96    2       33.177450173273       1.277000652571       4.514879105063
        97    1       37.601110196376       3.831001957713       0.000000000000
        98    1       35.389280184824       5.108002610284       1.805951642025
        99    1       37.601110196376       6.385003262855       3.611903284050
       100    1       35.389280184824       0.000000000000       0.000000000000
       101    1       37.601110196376       1.277000652571       1.805951642025
       102    1       35.389280184824       2.554001305142       3.611903284050
       103    2       37.601110196376       6.385003262855       0.902975821013
       104    2       35.389280184824       2.554001305142       0.902975821013
       105    2       37.601110196376       3.831001957713       2.708927463038
       106    2       35.389280184824       5.108002610284       4.514879105063
       107    2       35.389280184824       0.000000000000       2.708927463038
       108    2       37.601110196376       1.277000652571       4.514879105063
       109    1       42.024770219479       3.831001957713       0.000000000000
       110    1       39.812940207927       5.108002610284       1.805951642025
       111    1       42.024770219479       6.385003262855       3.611903284050
       112    1       39.812940207927       0.000000000000       0.000000000000
       113    1       42.024770219479       1.277000652571       1.805951642025
       114    1       39.812940207927       2.554001305142       3.611903284050
       115    2       42.024770219479       6.385003262855       0.902975821013
       116    2       39.812940207927       2.554001305142       0.902975821013
       117    2       42.024770219479       3.831001957713       2.708927463038
       118    2       39.812940207927       5.108002610284       4.514879105063
       119    2       39.812940207927       0.000000000000       2.708927463038
       120    2       42.024770219479       1.277000652571       4.514879105063
       121    1       46.448430242582       3.831001957713       0.000000000000
       122    1       44.236600231030       5.108002610284       1.805951642025
       123    1       46.448430242582       6.385003262855       3.611903284050
       124    1       44.236600231030       0.000000000000       0.000000000000
       125    1       46.448430242582       1.277000652571       1.805951642025
       126    1       44.236600231030       2.554001305142       3.611903284050
       127    2       46.448430242582       6.385003262855       0.902975821013
       128    2       44.236600231030       2.554001305142       0.902975821013
       129    2       46.448430242582       3.831001957713       2.708927463038
       130    2       44.236600231030       5.108002610284       4.514879105063
       131    2       44.236600231030       0.000000000000       2.708927463038
       132    2       46.448430242582       1.277000652571       4.514879105063
       133    1       50.872090265685       3.831001957713       0.000000000000
       134    1       48.660260254133       5.108002610284       1.805951642025
       135    1       50.872090265685       6.385003262855       3.611903284050
       136    1       48.660260254133       0.000000000000       0.000000000000
       137    1       50.872090265685       1.277000652571       1.805951642025
       138    1       48.660260254133       2.554001305142       3.611903284050
       139    2       50.872090265685       6.385003262855       0.902975821013
       140    2       48.660260254133       2.554001305142       0.902975821013
       141    2       50.872090265685       3.831001957713       2.708927463038
       142    2       48.660260254133       5.108002610284       4.514879105063
       143    2       48.660260254133       0.000000000000       2.708927463038
       144    2       50.872090265685       1.277000652571       4.514879105063
       145    1       55.295750288788       3.831001957713       0.000000000000
       146    1       53.083920277236       5.108002610284       1.805951642025
       147    1       55.295750288788       6.385003262855       3.611903284050
       148    1       53.083920277236       0.000000000000       0.000000000000
       149    1       55.295750288788       1.277000652571       1.805951642025
       150    1       53.083920277236       2.554001305142       3.611903284050
       151    2       55.295750288788       6.385003262855       0.902975821013
       152    2       53.083920277236       2.554001305142       0.902975821013
       153    2       55.295750288788       3.831001957713       2.708927463038
       154    2       53.083920277236       5.108002610284       4.514879105063
       155    2       53.083920277236       0.000000000000       2.708927463038
       156    2       55.295750288788       1.277000652571       4.514879105063
       157    1       59.719410311891       3.831001957713       0.000000000000
       158    1       57.507580300340       5.108002610284       1.805951642025
       159    1       59.719410311891       6.385003262855       3.611903284050
       160    1       57.507580300340       0.000000000000       0.000000000000
       161    1       59.719410311891       1.277000652571       1.805951642025
       162    1       57.507580300340       2.554001305142       3.611903284050
       163    2       59.719410311891       6.385003262855       0.902975821013
       164    2       57.507580300340       2.554001305142       0.902975821013
       165    2       59.719410311891       3.831001957713       2.708927463038
       166    2       57.507580300340       5.108002610284       4.514879105063
       167    2       57.507580300340       0.000000000000       2.708927463038
       168    2       59.719410311891       1.277000652571       4.514879105063
       169    1       64.143070334994       3.831001957713       0.000000000000
       170    1       61.931240323443       5.108002610284       1.805951642025
       171    1       64.143070334994       6.385003262855       3.611903284050
       172    1       61.931240323443       0.000000000000       0.000000000000
       173    1       64.143070334994       1.277000652571       1.805951642025
       174    1       61.931240323443       2.554001305142       3.611903284050
       175    2       64.143070334994       6.385003262855       0.902975821013
       176    2       61.931240323443       2.554001305142       0.902975821013
       177    2       64.143070334994       3.831001957713       2.708927463038
       178    2       61.931240323443       5.108002610284       4.514879105063
       179    2       61.931240323443       0.000000000000       2.708927463038
       180    2       64.143070334994       1.277000652571       4.514879105063
       181    1        2.211830011552      11.493005873139       0.000000000000
       182    1        0.000000000000      12.770006525710       1.805951642025
       183    1        2.211830011552      14.047007178281       3.611903284050
       184    1        0.000000000000       7.662003915426       0.000000000000
       185    1        2.211830011552       8.939004567997       1.805951642025
       186    1        0.000000000000      10.216005220568       3.611903284050
       187    2        2.211830011552      14.047007178281       0.902975821013
       188    2        0.000000000000      10.216005220568       0.902975821013
       189    2        2.211830011552      11.493005873139       2.708927463038
       190    2        0.000000000000      12.770006525710       4.514879105063
       191    2        0.000000000000       7.662003915426       2.708927463038
       192    2        2.211830011552       8.939004567997       4.514879105063
       193    1        6.635490034655      11.493005873139       0.000000000000
       194    1        4.423660023103      12.770006525710       1.805951642025
       195    1        6.635490034655      14.047007178281       3.611903284050
       196    1        4.423660023103       7.662003915426       0.000000000000
       197    1        6.635490034655       8.939004567997       1.805951642025
       198    1        4.423660023103      10.216005220568       3.611903284050
       199    2        6.635490034655      14.047007178281       0.902975821013
       200    2        4.423660023103      10.216005220568       0.902975821013
       201    2        6.635490034655      11.493005873139       2.708927463038
       202    2        4.423660023103      12.770006525710       4.514879105063
       203    2        4.423660023103       7.662003915426       2.708927463038
       204    2        6.635490034655       8.939004567997       4.514879105063
       205    1       11.059150057758      11.493005873139       0.000000000000
       206    1        8.847320046206      12.770006525710       1.805951642025
       207    1       11.059150057758      14.047007178281       3.611903284050
       208    1        8.847320046206       7.662003915426       0.000000000000
       209    1       11.059150057758       8.939004567997       1.805951642025
       210    1        8.847320046206      10.216005220568       3.611903284050
       211    2       11.059150057758      14.047007178281       0.902975821013
       212    2        8.847320046206      10.216005220568       0.902975821013
       213    2       11.059150057758      11.493005873139       2.708927463038
       214    2        8.847320046206      12.770006525710       4.514879105063
       215    2        8.847320046206       7.662003915426       2.708927463038
       216    2       11.059150057758       8.939004567997       4.514879105063
       217    1       15.482810080861      11.493005873139       0.000000000000
       218    1       13.270980069309      12.770006525710       1.805951642025
       219    1       15.482810080861      14.047007178281       3.611903284050
       220    1       13.270980069309       7.662003915426       0.000000000000
       221    1       15.482810080861       8.939004567997       1.805951642025
       222    1       13.270980069309      10.216005220568       3.611903284050
       223    2       15.482810080861      14.047007178281       0.902975821013
       224    2       13.270980069309      10.216005220568       0.902975821013
       225    2       15.482810080861      11.493005873139       2.708927463038
       226    2       13.270980069309      12.770006525710       4.514879105063
       227    2       13.270980069309       7.662003915426       2.708927463038
       228    2       15.482810080861       8.939004567997       4.514879105063
       229    1       19.906470103964      11.493005873139       0.000000000000
       230    1       17.694640092412      12.770006525710       1.805951642025
       231    1       19.906470103964      14.047007178281       3.611903284050
       232    1       17.694640092412       7.662003915426       0.000000000000
       233    1       19.906470103964       8.939004567997       1.805951642025
       234    1       17.694640092412      10.216005220568       3.611903284050
       235    2       19.906470103964      14.047007178281       0.902975821013
       236    2       17.694640092412      10.216005220568       0.902975821013
       237    2       19.906470103964      11.493005873139       2.708927463038
       238    2       17.694640092412      12.770006525710       4.514879105063
       239    2       17.694640092412       7.662003915426       2.708927463038
       240    2       19.906470103964       8.939004567997       4.514879105063
       241    1       24.330130127067      11.493005873139       0.000000000000
       242    1       22.118300115515      12.770006525710       1.805951642025
       243    1       24.330130127067      14.047007178281       3.611903284050
       244    1       22.118300115515       7.662003915426       0.000000000000
       245    1       24.330130127067       8.939004567997       1.805951642025
       246    1       22.118300115515      10.216005220568       3.611903284050
       247    2       24.330130127067      14.047007178281       0.902975821013
       248    2       22.118300115515      10.216005220568       0.902975821013
       249    2       24.330130127067      11.493005873139       2.708927463038
       250    2       22.118300115515      12.770006525710       4.514879105063
       251    2       22.118300115515       7.662003915426       2.708927463038
       252    2       24.330130127067       8.939004567997       4.514879105063
       253    1       28.753790150170      11.493005873139       0.000000000000
       254    1       26.541960138618      12.770006525710       1.805951642025
       255    1       28.753790150170      14.047007178281       3.611903284050
       256    1       26.541960138618       7.662003915426       0.000000000000
       257    1       28.753790150170       8.939004567997       1.805951642025
       258    1       26.541960138618      10.216005220568       3.611903284050
       259    2       28.753790150170      14.047007178281       0.902975821013
       260    2       26.541960138618      10.216005220568       0.902975821013
       261    2       28.753790150170      11.493005873139       2.708927463038
       262    2       26.541960138618      12.770006525710       4.514879105063
       263    2       26.541960138618       7.662003915426       2.708927463038
       264    2       28.753790150170       8.939004567997       4.514879105063
       265    1       33.177450173273      11.493005873139       0.000000000000
       266    1       30.965620161721      12.770006525710       1.805951642025
       267    1       33.177450173273      14.047007178281       3.611903284050
       268    1       30.965620161721       7.662003915426       0.000000000000
       269    1       33.177450173273       8.939004567997       1.805951642025
       270    1       30.965620161721      10.216005220568       3.611903284050
       271    2       33.177450173273      14.047007178281       0.902975821013
       272    2       30.965620161721      10.216005220568       0.902975821013
       273    2       33.177450173273      11.493005873139       2.708927463038
       274    2       30.965620161721      12.770006525710       4.514879105063
       275    2       30.965620161721       7.662003915426       2.708927463038
       276    2       33.177450173273       8.939004567997       4.514879105063
       277    1       37.601110196376      11.493005873139       0.000000000000
       278    1       35.389280184824      12.770006525710       1.805951642025
       279    1       37.601110196376      14.047007178281       3.611903284050
       280    1       35.389280184824       7.662003915426       0.000000000000
       281    1       37.601110196376       8.939004567997       1.805951642025
       282    1       35.389280184824      10.216005220568       3.611903284050
       283    2       37.601110196376      14.047007178281       0.902975821013
       284    2       35.389280184824      10.216005220568       0.902975821013
       285    2       37.601110196376      11.493005873139       2.708927463038
       286    2       35.389280184824      12.770006525710       4.514879105063
       287    2       35.389280184824       7.662003915426       2.708927463038
       288    2       37.601110196376       8.939004567997       4.514879105063
       289    1       42.024770219479      11.493005873139       0.000000000000
       290    1       39.812940207927      12.770006525710       1.805951642025
       291    1       42.024770219479      14.047007178281       3.611903284050
       292    1       39.812940207927       7.662003915426       0.000000000000
       293    1       42.024770219479       8.939004567997       1.805951642025
       294    1       39.812940207927      10.216005220568       3.611903284050
       295    2       42.024770219479      14.047007178281       0.902975821013
       296    2       39.812940207927      10.216005220568       0.902975821013
       297    2       42.024770219479      11.493005873139       2.708927463038
       298    2       39.812940207927      12.770006525710       4.514879105063
       299    2       39.812940207927       7.662003915426       2.708927463038
       300    2       42.024770219479       8.939004567997       4.514879105063
       301    1       46.448430242582      11.493005873139       0.000000000000
       302    1       44.236600231030      12.770006525710       1.805951642025
       303    1       46.448430242582      14.047007178281       3.611903284050
       304    1       44.236600231030       7.662003915426       0.000000000000
       305    1       46.448430242582       8.939004567997       1.805951642025
       306    1       44.236600231030      10.216005220568       3.611903284050
       307    2       46.448430242582      14.047007178281       0.902975821013
       308    2       44.236600231030      10.216005220568       0.902975821013
       309    2       46.448430242582      11.493005873139       2.708927463038
       310    2       44.236600231030      12.770006525710       4.514879105063
       311    2       44.236600231030       7.662003915426       2.708927463038
       312    2       46.448430242582       8.939004567997       4.514879105063
       313    1       50.872090265685      11.493005873139       0.000000000000
       314    1       48.660260254133      12.770006525710       1.805951642025
       315    1       50.872090265685      14.047007178281       3.611903284050
       316    1       48.660260254133       7.662003915426       0.000000000000
       317    1       50.872090265685       8.939004567997       1.805951642025
       318    1       48.660260254133      10.216005220568       3.611903284050
       319    2       50.872090265685      14.047007178281       0.902975821013
       320    2       48.660260254133      10.216005220568       0.902975821013
       321    2       50.872090265685      11.493005873139       2.708927463038
       322    2       48.660260254133      12.770006525710       4.514879105063
       323    2       48.660260254133       7.662003915426       2.708927463038
       324    2       50.872090265685       8.939004567997       4.514879105063
       325    1       55.295750288788      11.493005873139       0.000000000000
       326    1       53.083920277236      12.770006525710       1.805951642025
       327    1       55.295750288788      14.047007178281       3.611903284050
       328    1       53.083920277236       7.662003915426       0.000000000000
       329    1       55.295750288788       8.939004567997       1.805951642025
       330    1       53.083920277236      10.216005220568       3.611903284050
       331    2       55.295750288788      14.047007178281       0.902975821013
       332    2       53.083920277236      10.216005220568       0.902975821013
       333    2       55.295750288788      11.493005873139       2.708927463038
       334    2       53.083920277236      12.770006525710       4.514879105063
       335    2       53.083920277236       7.662003915426       2.708927463038
       336    2       55.295750288788       8.939004567997       4.514879105063
       337    1       59.719410311891      11.493005873139       0.000000000000
       338    1       57.507580300340      12.770006525710       1.805951642025
       339    1       59.719410311891      14.047007178281       3.611903284050
       340    1       57.507580300340       7.662003915426       0.000000000000
       341    1       59.719410311891       8.939004567997       1.805951642025
       342    1       57.507580300340      10.216005220568       3.611903284050
       343    2       59.719410311891      14.047007178281       0.902975821013
       344    2       57.507580300340      10.216005220568       0.902975821013
       345    2       59.719410311891      11.493005873139       2.708927463038
       346    2       57.507580300340      12.770006525710       4.514879105063
       347    2       57.507580300340       7.662003915426       2.708927463038
       348    2       59.719410311891       8.939004567997       4.514879105063
       349    1       64.143070334994      11.493005873139       0.000000000000
       350    1       61.931240323443      12.770006525710       1.805951642025
       351    1       64.143070334994      14.047007178281       3.611903284050
       352    1       61.931240323443       7.662003915426       0.000000000000
       353    1       64.143070334994       8.939004567997       1.805951642025
       354    1       61.931240323443      10.216005220568       3.611903284050
       355    2       64.143070334994      14.047007178281       0.902975821013
       356    2       61.931240323443      10.216005220568       0.902975821013
       357    2       64.143070334994      11.493005873139       2.708927463038
       358    2       61.931240323443      12.770006525710       4.514879105063
       359    2       61.931240323443       7.662003915426       2.708927463038
       360    2       64.143070334994       8.939004567997       4.514879105063
       361    1        2.211830011552      19.155009788564       0.000000000000
       362    1        0.000000000000      20.432010441135       1.805951642025
       363    1        2.211830011552      21.709011093706       3.611903284050
       364    1        0.000000000000      15.324007830852       0.000000000000
       365    1        2.211830011552      16.601008483423       1.805951642025
       366    1        0.000000000000      17.878009135993       3.611903284050
       367    2        2.211830011552      21.709011093706       0.902975821013
       368    2        0.000000000000      17.878009135993       0.902975821013
       369    2        2.211830011552      19.155009788564       2.708927463038
       370    2        0.000000000000      20.432010441135       4.514879105063